16
 energy: -17.842492180378 gnorm: 0.000711022449 xtb: 6.6.1 (8d0f1dd)
C           -2.15502918027617       -0.02326790024648       -0.53352888039961
C           -1.29046819356190       -0.12737561054605       -1.65952336502895
C            0.04735971119648       -0.19098499355106       -1.49922700150355
C            0.61129224659299       -0.23617644380265       -0.16578678633243
H           -1.91238517562839        0.69794937646797        0.23015742130132
H           -3.21171247802130       -0.17724640301442       -0.68415287689589
H           -1.72990183432093       -0.27338781567680       -2.63739300517797
H            0.69536508567107       -0.37125035934958       -2.34431815334914
H            1.68811924399588       -0.35289869160297       -0.13064156950021
H            0.27482246984780        0.55397127037650        0.49552509774008
C           -1.52069925715537       -1.69521741442498        0.65336726556289
C           -0.06386904451927       -1.69760442776820        0.63272598079605
H           -2.00436226946102       -1.41692441109475        1.57558644190851
H           -2.02658333337754       -2.46520456332293        0.09527800718528
H            0.38776961508533       -1.63188616381015        1.61657204729397
H            0.36318077593243       -2.50828192663370        0.05327233739959
