8
 energy: -12.822883283172 gnorm: 0.000876378772 xtb: 6.6.1 (8d0f1dd)
C            0.30328874756064       -0.83376152941053       -0.21884685341130
H            0.64416882746821       -0.14797090499049       -0.97494797562062
H           -0.54562449298103       -1.45977985636899       -0.43168012862017
H            0.89764315677857       -1.00583684172607        0.67218400340685
O           -0.80078665701356        0.56868068732625        0.73260521344487
H           -1.22281012113367        0.11819996013546        1.48363266256760
H           -0.17270430695762        1.24105743916333        1.04682973256135
Cl           1.90008436227841       -2.52226121912906       -0.81333466032853
8
 energy: -12.823054796147 gnorm: 0.000977118152 xtb: 6.6.1 (8d0f1dd)
C            0.29936735390298       -0.83177369265202       -0.22384970676087
H            0.64243278020324       -0.14483948944747       -0.97783337390289
H           -0.55005805392586       -1.45614008029185       -0.44026234282430
H            0.89421240977938       -1.01049765228516        0.66607360933860
O           -0.80052341560836        0.56623466995411        0.73566483320868
H           -1.21321931903780        0.11379270590073        1.49088581707538
H           -0.17194234206594        1.24138744682281        1.04335512347970
Cl           1.90299010275231       -2.51983617300125       -0.79759196561412
8
-12.82311956432
C 0.2624119297383033 -0.7869627826578317 -0.1966251482917277
H 0.6432332421851715 -0.1440009785499708 -0.9778011821734646
H -0.5507846219314066 -1.4555662388572805 -0.44107517008981867
H 0.8942200502879766 -1.0100123925649582 0.6675380987848603
O -0.7699627579497151 0.5274119356336213 0.7091837930591527
H -1.2124525714122087 0.11349740507337931 1.4914973079058231
H -0.1712385423633934 1.2412476076477774 1.0441212023909299
Cl 1.9201308543880435 -2.537961481080854 -0.8037601901313478
8
-12.82982316536
C 0.22588371157025328 -0.7364648897079372 -0.1558260425698122
H 0.6399740060937866 -0.14843528456442046 -0.9719464892814184
H -0.5454672882708379 -1.4501581794176126 -0.439519217868695
H 0.8901071622350173 -1.0117350222605004 0.654607331043818
O -0.7325043417293281 0.48791207558458194 0.6960868224651928
H -1.2031524745060986 0.11559819506748134 1.472083190836856
H -0.17902882730022784 1.2247716058602598 1.0317745360731945
Cl 1.9252253372579413 -2.5430015496992535 -0.8046727523953473
8
-12.84160616256
C 0.18368249967150427 -0.6845938398956063 -0.12183183488091473
H 0.6343527228943693 -0.15355976858308928 -0.9609697998479171
H -0.5374022166570126 -1.44004612208994 -0.4345650674437789
H 0.8935913323213965 -1.017958788341113 0.6481050566252561
O -0.700332471158837 0.44690362252585086 0.6686254502434654
H -1.199686989622852 0.10615019875633298 1.4618024952724447
H -0.1730773428096947 1.2178873844860056 1.0207493806813062
Cl 1.9291164974407666 -2.546487099384549 -0.80450352395014
8
-12.85473148653
C 0.1472491144230937 -0.6349376506856745 -0.08173979468524999
H 0.6267577180059092 -0.15755138786502937 -0.9470980413531728
H -0.5301738502083355 -1.427381351724041 -0.42761240636571607
H 0.8911891417659225 -1.0224679149819016 0.6327190573004464
O -0.6687656083051863 0.4106242097570175 0.6497294222285253
H -1.190863252475718 0.09636686397451472 1.442160770299274
H -0.16980975078655594 1.2018455394105965 1.003456581774154
Cl 1.9302647580848322 -2.5461405670814767 -0.8010321194320076
8
-12.86494604655
C 0.11432091914667451 -0.5902995217308495 -0.04617087911351829
H 0.6141002162345571 -0.16121106645976016 -0.9239221796515333
H -0.5207128192759973 -1.40614771144254 -0.41470835476585144
H 0.8886271507929855 -1.028947429655067 0.6126537661620857
O -0.6437898296331318 0.38381429714309084 0.6401589939714517
H -1.1791183554410931 0.08015069296033933 1.415120227696019
H -0.16268162908753867 1.180340285744676 0.978439329959931
Cl 1.927798841363599 -2.541018529617767 -0.7938541120674447
8
-12.86859254181
C 0.12508577514928626 -0.602629424168016 -0.051923940710305545
H 0.6024550992189328 -0.15807652248242723 -0.9028140018896051
H -0.517954598198479 -1.3864477234637018 -0.40036501889994813
H 0.8883445311981685 -1.0363937717607852 0.5955120806432996
O -0.6586955556333705 0.4028423334386075 0.6529188694092857
H -1.175781184563221 0.0587317517024632 1.3997324683591241
H -0.1479074179514447 1.1710359928677336 0.9579766046029525
Cl 1.9236259125895343 -2.533254287242069 -0.7839379032625465
8
-12.86992568967
C 0.1135579177571071 -0.5839861586929108 -0.032515640593671825
H 0.6048789957579067 -0.1433940023712346 -0.9079336302167736
H -0.5333242285965407 -1.3905019638086438 -0.39799482782808343
H 0.8979920004593472 -1.0468042790159149 0.5931976983888219
O -0.6585203805905613 0.39360899985303194 0.6298172482202495
H -1.1845709810022405 0.03712038378019793 1.4072136500566073
H -0.12640634803780368 1.1819835973546267 0.9523949103462278
Cl 1.926838931241031 -2.5333643489525586 -0.7769164813986037
8
-12.87036013502
C 0.12076601217328155 -0.6003294322075523 -0.05550967746167609
H 0.5980728806717058 -0.13977923270037756 -0.8954943019630586
H -0.5333840285487261 -1.3786594568764867 -0.3889081985537376
H 0.8995094795550025 -1.0512350144970808 0.5864534418446622
O -0.6640628568581065 0.4105250688828001 0.6593099501195547
H -1.175353444762033 0.033069956056247754 1.388710493671913
H -0.12792757130725443 1.1662447111169036 0.9383016238603372
Cl 1.9224108675507043 -2.524852158197209 -0.765747862853054
8
-12.87047167934
C 0.10908637059128203 -0.5786060687306441 -0.029301628022611204
H 0.6014516925855603 -0.1275957895208699 -0.9058672778915067
H -0.5483744189688612 -1.3859133398155705 -0.3916714535215406
H 0.8985090209059192 -1.0542978950546347 0.5778946377450167
O -0.6554943428333448 0.39181475534388854 0.6318567907020328
H -1.1845240085807978 0.01944091995512236 1.4023076550388476
H -0.11164438638823468 1.1800463025543684 0.9409137128335692
Cl 1.9313829337005572 -2.5307703586911305 -0.7601670989505158
8
-12.87047018812
C 0.11573800843447654 -0.5993093232689685 -0.06366186611362358
H 0.5917490654289589 -0.12997209992632652 -0.8910559915167965
H -0.5423929811942524 -1.3704175278429844 -0.3841031827886916
H 0.9006732900649326 -1.0586198454563684 0.5723911287976481
O -0.6604881123621299 0.4097891094143873 0.6652158061777144
H -1.1733775684975558 0.022108706386366955 1.3849659417293614
H -0.11869588881869743 1.1630286580865412 0.9311714089185988
Cl 1.9269565398817812 -2.5218851481397615 -0.7480917741152959
8
-12.8703871693
C 0.10567706512910684 -0.5751594203181813 -0.028546900746614784
H 0.5974726132163974 -0.11752469658245153 -0.9086576520043775
H -0.559972053782771 -1.382950751339029 -0.39193950954458673
H 0.8984105531213129 -1.061069277973931 0.5623173975502409
O -0.6520804214055345 0.38980552375543126 0.6346833806071891
H -1.1831479961622189 0.010620316263195548 1.4022097512115743
H -0.10309224611748877 1.1788745269969723 0.9374407622802025
Cl 1.9375698508888155 -2.5292524968892107 -0.7424376415053788
8
-12.87033770593
C 0.11124037380604848 -0.5985985899227837 -0.07138604145240543
H 0.5861584046185605 -0.12323939479251754 -0.892120500494251
H -0.5503184632870386 -1.365230089736932 -0.3848128478404957
H 0.9034003473664308 -1.0666960404689294 0.5595794738510506
O -0.6578940451403622 0.4097561265500366 0.670489097904726
H -1.1712151539438842 0.015948120984916735 1.3857049022342107
H -0.11232491272365382 1.1613114946882068 0.9297067913926589
Cl 1.93220308019409 -2.5192275776358786 -0.7296888014044554
8
-12.8703698904
C 0.10261661198402046 -0.5736000501453454 -0.03179590308012804
H 0.5924836668595828 -0.11108267060706425 -0.9120679574187872
H -0.5684863188070362 -1.3794707486831816 -0.39451409036928214
H 0.8991263722518966 -1.0678442557621544 0.5479478905854497
O -0.6497827326607193 0.38921833409505574 0.6393870353116028
H -1.180539560881731 0.005833614206672081 1.4036622588073704
H -0.09743433740113314 1.177297183868542 0.9373483408288714
Cl 1.9438634590282713 -2.527562852951774 -0.7241167392180751
8
-12.87065017699
C 0.10644702764595657 -0.5957271927398186 -0.07432851794252149
H 0.5811086963279372 -0.11761134211732824 -0.89604296054717
H -0.5580152133063768 -1.36184209843509 -0.3880816101683043
H 0.9042062641206235 -1.0732940587373851 0.545510057992514
O -0.6541686934918378 0.4077065230342742 0.6727096223000524
H -1.169208362328888 0.011602256183258696 1.389196589447847
H -0.10683584438902768 1.160633422673204 0.93117948855917
Cl 1.9388251931714349 -2.5178975140266044 -0.711524963352021
8
-12.87107080168
C 0.09911965735036644 -0.5735106324879232 -0.039978687582306376
H 0.5860126757446094 -0.10735075670023653 -0.9137566251830191
H -0.5740092477409753 -1.3741054639255403 -0.3972248874755106
H 0.9001624938103138 -1.0742986378348172 0.5344718648587642
O -0.6475809921917257 0.3892247636520549 0.6468243595917736
H -1.17616573775302 0.003695036807797777 1.4042203559941844
H -0.09410278091412247 1.1740091860673663 0.9383264454461256
Cl 1.9494609568609687 -2.525109658955857 -0.7054373887927238
8
-12.87164746388
C 0.10151439561196186 -0.5913048635189164 -0.07325926981617714
H 0.5763993822954134 -0.11219808494522453 -0.9019745407400434
H -0.5659559603828676 -1.3596515148922481 -0.39288746115836887
H 0.9036699825224568 -1.0788819675441954 0.5304868841694963
O -0.6495331648333582 0.40439657963364084 0.6723891069627604
H -1.1672486270114153 0.007739456182417495 1.3942140425934821
H -0.10156547706583893 1.1602972158234168 0.9340716459977815
Cl 1.9460441676177818 -2.517246893377103 -0.6936200597253968
8
-12.87218358279
C 0.0957723426551118 -0.5741355570860653 -0.05049020040156281
H 0.578610598509365 -0.10501085441575812 -0.9146685092482757
H -0.5781102009830575 -1.3678168793234344 -0.4001265809249547
H 0.9012900543090767 -1.0805441254149568 0.5213836704341518
O -0.6458179898450837 0.3891366326621067 0.6551481074089333
H -1.170776827912485 0.0026089773183868943 1.4043240292313441
H -0.09144148749710496 1.1700861617927159 0.9399206485865503
Cl 1.9542160866191456 -2.52188681294061 -0.6866582727707818
8
-12.87270372801
C 0.0964130487858505 -0.5869400913459987 -0.07155221706820941
H 0.5717833992218473 -0.10690507076902252 -0.9088978055890757
H -0.5737563632525512 -1.3578766017577053 -0.39837465846695636
H 0.9027991447973799 -1.0838703112197772 0.5158184643831393
O -0.6443985738655809 0.4013324022852108 0.6711239419303908
H -1.1653103123789599 0.003769921111605009 1.4000456497888853
H -0.09653066265532835 1.1597168781504688 0.9374359096731096
Cl 1.9529578265572158 -2.5164910599332884 -0.6760718861194706
8
-12.87310558744
C 0.09313385821293912 -0.5745956692943965 -0.06077543927520889
H 0.571297823026069 -0.10281179956381989 -0.9163071032327372
H -0.5824634843301186 -1.3622634186106914 -0.40359188576348143
H 0.9019643687104731 -1.0861647239770063 0.5086140818970304
O -0.6448793361835278 0.3883564697018867 0.6632257077182693
H -1.1650414469945025 0.0016326041318865496 1.4045723612639949
H -0.08830334428273168 1.1667077019692618 0.9420394213637695
Cl 1.958474599261137 -2.5184570898303806 -0.6684164876691169
8
-12.87341694758
C 0.0909234329055091 -0.5836736152643075 -0.07133017286207227
H 0.5668965956130178 -0.10174798195730733 -0.9158062751378342
H -0.5807297568823696 -1.3555777785378547 -0.40371118739706807
H 0.9023722700814634 -1.0886441306882735 0.5022908919459658
O -0.6389363621659705 0.3995926906220686 0.670001374678245
H -1.163385261740212 -0.0007784196817541638 1.4066257854143416
H -0.09221072329985441 1.1581489851112434 0.9406023974633355
Cl 1.9590511702985094 -2.515154234038228 -0.6588773129641149
8
-12.87364148109
C 0.09147960959391395 -0.5736648347996475 -0.06929405839756508
H 0.5641431537136601 -0.10013972303006977 -0.9191842757307408
H -0.5880157238687768 -1.3581616710730378 -0.40776693751316656
H 0.9020594842135579 -1.0912278989299289 0.4957986507379408
O -0.6453401131869377 0.38589019439453864 0.6705211605923748
H -1.158930263151257 0.00046570640013470334 1.4049958675434617
H -0.08395857415031555 1.164707103248249 0.9447853402384229
Cl 1.9628138222344333 -2.5152984044916367 -0.6506098174778505
8
-12.8737500601
C 0.08437077529148673 -0.5828444308014558 -0.07331629186545058
H 0.5619729245998955 -0.09636708298714236 -0.9228524172438313
H -0.5865218100012914 -1.3521193445156816 -0.4085596507759381
H 0.9022785484585788 -1.0932831801078593 0.48921387437667563
O -0.6323811610613627 0.40081198209169827 0.6693927431300587
H -1.1617048628364737 -0.005410022218815574 1.4133306854767387
H -0.08911300437743828 1.1548989584796072 0.9432959994187492
Cl 1.9647125965928314 -2.513353157544131 -0.6414766527704541
8
-12.87376431341
C 0.0913344738761637 -0.5698302325421588 -0.07723818052323748
H 0.5567164594829365 -0.09787571250430417 -0.921964466282956
H -0.5955389154817903 -1.3558854717307793 -0.4127910220715555
H 0.9016111477971083 -1.0960514297293216 0.48241770450773275
O -0.6477712685958371 0.3806567792276553 0.6763449994252381
H -1.1531976859353923 -0.00031036829925014473 1.4054311382860436
H -0.07734623153725055 1.1652116079185346 0.9486147347705507
Cl 1.9680690485593437 -2.5128815864169596 -0.6325110078193252
8
-12.87357191688
C 0.07552632783901339 -0.5853090509979597 -0.07519087631826872
H 0.5575913040424973 -0.09020386537950997 -0.9310764114770992
H -0.5907966886834964 -1.3468997160770357 -0.41300646918683165
H 0.902160573283952 -1.097846719681676 0.47519300368985057
O -0.6242317521474378 0.40532631375580663 0.6683084463263339
H -1.1609366543765478 -0.010934052873001938 1.4212826284625855
H -0.08723597867203896 1.1499465160768552 0.9455874139149705
Cl 1.9710013481139173 -2.5116571700612815 -0.6229120481558833
8
-12.87312552239
C 0.09299379241016738 -0.5622479991013963 -0.08536009627812519
H 0.548697363698391 -0.09661933494980822 -0.9237958907741777
H -0.6052794555946137 -1.3556841545497724 -0.418797347449021
H 0.9009272632941896 -1.1012957616419767 0.46814421069612666
O -0.6528159645074555 0.37271703108528176 0.6812906468813894
H -1.1471708674603616 -0.0005377896148711266 1.4056135360370503
H -0.0684783014298044 1.1682191853319213 0.9536035878265477
Cl 1.9750838835672015 -2.5115937612286134 -0.6131531186953989
8
-12.87229353562
C 0.06460442137033477 -0.589901480617208 -0.07644996985091115
H 0.5542347542404279 -0.08302669791163855 -0.9411323462742741
H -0.5940819934064784 -1.3407225469067157 -0.4173157694924556
H 0.9019594399884893 -1.1024346972260837 0.46019748090227924
O -0.6161171189423534 0.4116868932672964 0.6660017355923906
H -1.1612003236942954 -0.017312169783538965 1.4311620526176276
H -0.08542930591820742 1.1452454551236437 0.9482645165546172
Cl 1.9798414610942834 -2.511797970207062 -0.60309707373599
8
-12.87128611533
C 0.09330576325470691 -0.5548408837585933 -0.09217399153678038
H 0.5414281447500141 -0.09479449797625718 -0.9269599921366136
H -0.6151722693454956 -1.3561524965889173 -0.42529825422689926
H 0.8999092898584669 -1.106503712316196 0.45359419875175044
O -0.6561856262494205 0.3682569586886315 0.6839260590509845
H -1.1431374695188288 -0.001997411026206767 1.4087943362751645
H -0.06046112349355605 1.1706559966841088 0.9588049821314266
Cl 1.9856489459045794 -2.5133724152700663 -0.5933519145177066
8
-12.8710011751
C 0.059023457562087094 -0.5889906488553627 -0.08058678176587449
H 0.5493488489899528 -0.07847428146781249 -0.9482630289294283
H -0.6002090716775365 -1.3376101252395367 -0.42247647862974097
H 0.9010328213284303 -1.1068666370672158 0.4459378902451487
O -0.6164133145577674 0.4112120649000896 0.6685754771199537
H -1.157779414931647 -0.01970529050678486 1.4354453275903152
H -0.08018886747901581 1.1452099262634827 0.9525634815497399
Cl 1.9914254754536125 -2.5146323112988376 -0.5836458668799674
8
-12.87168454268
C 0.08598958013861359 -0.556257869089106 -0.09636381323378258
H 0.5366353096106213 -0.08973312332894251 -0.9339040130070525
H -0.6197325505052256 -1.3515895264997357 -0.4297673697404887
H 0.8989406853612668 -1.1103734828372736 0.4400534232194116
O -0.6499672508039982 0.3742598619291083 0.6862333165326989
H -1.1413334230826917 -0.0057615833355376365 1.4150343378089607
H -0.05989955375096549 1.1646656917344838 0.9608631644693327
Cl 1.996631997443219 -2.5157948531345657 -0.5742372824827128
8
-12.87301075823
C 0.060667896505522775 -0.5808087446594333 -0.08898727694959963
H 0.5411683300961562 -0.07775955010433425 -0.9488232085534473
H -0.6093141089252165 -1.3370346054552298 -0.4276675497111024
H 0.8993586139595806 -1.1108612396675408 0.43353395527667643
O -0.6211689611455115 0.40342033816089506 0.6769494066796017
H -1.1499362970156553 -0.017722895722414866 1.4321466335920965
H -0.07383713386346016 1.1457611212210497 0.9564446440730454
Cl 2.0008035990439157 -2.515952899047453 -0.565298953002178
8
-12.8743076119
C 0.07527527904060335 -0.5621207898623943 -0.09887630786842734
H 0.5326897423148154 -0.08321530960778453 -0.9411655251149241
H -0.6210435025710528 -1.3433928537218507 -0.43200370104703584
H 0.8979750005450694 -1.113193720375041 0.428198051477511
O -0.639640522296687 0.3809833237968146 0.687779301849863
H -1.1394184723649705 -0.010020146221739173 1.420245931306839
H -0.06183968088643714 1.1558057320194859 0.9612484679686757
Cl 2.004129566259617 -2.515750717054491 -0.556943113829695
8
-12.8752167169
C 0.06296510744455587 -0.5732424820184675 -0.09629448985791693
H 0.533106249793491 -0.0767432740427738 -0.9484952651565327
H -0.6179158601039112 -1.335930620750969 -0.4319112713253109
H 0.8978753992602747 -1.1142278202434261 0.42284359936998134
O -0.6240678743444874 0.3951991382077513 0.6831956120279983
H -1.1429043919778878 -0.016669271664892522 1.429130188279117
H -0.06789112974871041 1.1455960140791577 0.9593816604485796
Cl 2.0067577330788113 -2.515050387035739 -0.5492248407103516
8
-12.87576491208
C 0.06814101685590443 -0.5656506707322534 -0.10116396312308731
H 0.5284276209070798 -0.07757035016932798 -0.9468500681451509
H -0.6240510301317532 -1.3373128193666333 -0.4344383137464368
H 0.8972577680019396 -1.1159573494331918 0.41821651732731063
O -0.6318578336937273 0.38449040709664206 0.6884262777749048
H -1.1373803634375201 -0.014119811053401744 1.4244003819253692
H -0.06146376323330262 1.1494939698201243 0.9619699847781127
Cl 2.0088957089882937 -2.5142004614847284 -0.5420834803255451
8
-12.87609226332
C 0.06324746580172518 -0.5692151053774324 -0.10144623441922453
H 0.5269807220686931 -0.07426198912620784 -0.9503323263816045
H -0.6248334627773702 -1.3340862387395789 -0.4355280836321277
H 0.8970983586811453 -1.1172278039479235 0.41378799985769643
O -0.624998279382677 0.3898144682806892 0.6870450915722169
H -1.1378497946805963 -0.017579965439639248 1.4284865939296445
H -0.06260041750132425 1.1448912456884563 0.9617927221071679
Cl 2.0106965300613564 -2.513203083320976 -0.5354343071816526
8
-12.87630252726
C 0.06389262242644786 -0.5668218259823279 -0.10409632987152702
H 0.5241617787538664 -0.07325801659423173 -0.9512122728224849
H -0.6282203855439593 -1.3334741473933347 -0.43728579040330445
H 0.8967532902350627 -1.1186458676737556 0.40962288194704427
O -0.6269906987038324 0.38576785935128394 0.6894264687112994
H -1.1349885474013497 -0.017653512824841282 1.4275743184493874
H -0.05921100875523442 1.1454868222808108 0.9632504174573696
Cl 2.0122982283627726 -2.5121713514686403 -0.5291026615815275
8
-12.8764575386
C 0.06187056639909953 -0.5673152827956887 -0.10551541546819178
H 0.5221546879962855 -0.07130457475702204 -0.9532491554819003
H -0.6302003713947629 -1.331811870256574 -0.43872658450696084
H 0.8964813734868697 -1.1199227725522767 0.40547840116685874
O -0.6242930660538357 0.386857961061056 0.6896934251632232
H -1.134006340622819 -0.01958484634687884 1.429436570989925
H -0.05818833645045615 1.1433876703779917 0.9638610972464424
Cl 2.0137948610678014 -2.5111019510163373 -0.5229356773508622
8
-12.87659062063
C 0.061030019633761756 -0.5664943775112298 -0.10744931565857761
H 0.5198876183569677 -0.0698692468418677 -0.9547788395318402
H -0.6326749660983765 -1.3306586748312204 -0.4402942997167176
H 0.8961421101705535 -1.1212273718024295 0.40133210061534613
O -0.6240019052617185 0.38539181250354027 0.6910140696192796
H -1.1320713497040626 -0.02062146345164586 1.4299672677853308
H -0.05594915580043438 1.142657318172919 0.9649357125651484
Cl 2.015225903290295 -2.5100070928797678 -0.5168405013184135
8
-12.87671720677
C 0.05964540051000157 -0.5662308280364603 -0.10913705948789003
H 0.5177662608203484 -0.06827086592279165 -0.9565138957028864
H -0.6348674201416367 -1.3293239628054996 -0.44182994828430294
H 0.895800835591245 -1.122501757681952 0.3971552808893521
O -0.6225244994082241 0.38521458568981254 0.6918226279248535
H -1.1305694734758471 -0.02211445854988202 1.4311893943190424
H -0.054270897068114735 1.1412303122175722 0.9658286590909899
Cl 2.016609919334308 -2.508891785920367 -0.5108013028070822
8
-12.87684184056
C 0.05851931635807425 -0.5656781523221329 -0.1109256521179998
H 0.5156041964562451 -0.06679896864244203 -0.9581461419424833
H -0.6371418626556294 -1.3280987529577157 -0.44338972264423193
H 0.8954352411436232 -1.1237743907167392 0.39297284703380786
O -0.6216905896462239 0.3843658513181308 0.6929047098698927
H -1.1288039863199586 -0.023377239174528733 1.4320764327059337
H -0.05228196448894094 1.140146729209372 0.9668549332005043
Cl 2.0179542442635134 -2.5077633205127072 -0.5048137775527712
8
-12.87696530294
C 0.05724964386264608 -0.5652822878853718 -0.11263422298959715
H 0.5134958680917885 -0.06529854798249543 -0.9598192304833818
H -0.6393170697744736 -1.3268359950920334 -0.44493555638895776
H 0.895065515266003 -1.1250285289654345 0.3887966784103988
O -0.6205041699279326 0.3839235851122837 0.6938092466788315
H -1.1271680925244671 -0.024768848563821756 1.4331711146295452
H -0.050471521323244846 1.1388489074004877 0.9678328243594834
Cl 2.01926316879256 -2.506624183609971 -0.49887746925024745
8
-12.8770874898
C 0.056080520627355586 -0.564785188934345 -0.11436754761935222
H 0.5113900108917436 -0.0638566525431533 -0.9614427133523572
H -0.6415015040730022 -1.3256222500339514 -0.44647858332117657
H 0.8946872636208875 -1.126270469890027 0.38464640606804096
O -0.6195658646022093 0.3832399184948563 0.694795380696498
H -1.1254379010340758 -0.026066203803881464 1.4341370297648162
H -0.0485622058696683 1.1376739499453299 0.9688585927864155
Cl 2.0205372257695258 -2.505476444677953 -0.49299537969688556
8
-12.87720819295
C 0.05485848491439728 -0.5643561717035012 -0.11605813806573788
H 0.5093231453945276 -0.0624145141821444 -0.9630731538093478
H -0.6436296525447619 -1.3244013497491858 -0.44800558212281955
H 0.8943062199457964 -1.1274923719930294 0.3805271475631952
O -0.6184909378845195 0.3827234070314447 0.695696038116363
H -1.1237608750730732 -0.027407746010657416 1.4351780375716685
H -0.04673793705679353 1.1364129095254232 0.9698625766341076
Cl 2.0217783390958934 -2.504321272786471 -0.48716757018882934
8
-12.87732736169
C 0.05368768899208882 -0.5638864051926785 -0.1177510960045829
H 0.5072721197304677 -0.061007912232104944 -0.9646728400609814
H -0.6457499972246202 -1.323209513164207 -0.44952287516246914
H 0.8939182762221055 -1.1286959797933334 0.37644450934193613
O -0.6175253750070159 0.3821052711337235 0.6966202829813758
H -1.1220455544553067 -0.028704172108627978 1.4361570229402587
H -0.04488217767423523 1.1352040212291763 0.9708833273821154
Cl 2.0229882035415745 -2.5031599282919315 -0.48139276420958405
8
-12.87744498472
C 0.052501630643543795 -0.563449101520865 -0.11941804573638175
H 0.5052514120430686 -0.05960963131591823 -0.9662665342310547
H -0.6478345600566839 -1.32202141524765 -0.45102508071085284
H 0.8935256089225225 -1.1298779768548706 0.37240059103762635
O -0.616506001806277 0.3815574247364751 0.6974981446777856
H -1.1203539278852375 -0.030015408321541866 1.4371600051873465
H -0.043070394588566686 1.1339586839572309 0.9718907852678728
Cl 2.024167873674845 -2.5019928770178708 -0.47567020636525137
8
-12.8775610639
C 0.051343743130695604 -0.5629983775616996 -0.12107821248081846
H 0.5032505133745657 -0.05823416132399717 -0.9678384958574947
H -0.6499039422075834 -1.320851928452191 -0.45251520571650694
H 0.8931273281782227 -1.1310396255115465 0.3683982757554724
O -0.6155350968009998 0.38096750063593293 0.6983754625471835
H -1.1186480865839812 -0.03130504494503382 1.4381301287707768
H -0.04125360482197989 1.1327343075100669 0.9729000255253574
Cl 2.0253179806746058 -2.500820395229968 -0.46999891144110306
8
-12.87767559646
C 0.05018813844171957 -0.5625639598651891 -0.12271977575179953
H 0.5012743050528782 -0.05687001819760624 -0.9693993308555047
H -0.6519475254134299 -1.319690645638047 -0.45399177441385613
H 0.8927245671392915 -1.1321784009942473 0.3644401068668835
O -0.6145467895133249 0.3804040674784442 0.6992241288685838
H -1.1169530478521197 -0.03259784521892176 1.4391015293525566
H -0.039461674374459244 1.1314954749276507 0.9738982688020947
Cl 2.0264389810994112 -2.499643392229604 -0.46437847773620555
8
-12.8777885473
C 0.04905164321640448 -0.5621287063173973 -0.12435106297090784
H 0.49931828804820383 -0.05552272907811691 -0.9709429449983389
H -0.6539726329655471 -1.3185427703470367 -0.4554556776731664
H 0.8923171692424726 -1.1332936948874153 0.3605305252669138
O -0.6135797008328672 0.3798231954757129 0.7000616468027893
H -1.1152547708533045 -0.033880340123862616 1.4400519716722349
H -0.03767562501246619 1.1302647355246551 0.9748906308306483
Cl 2.027530403094175 -2.498462462235158 -0.458810057690102
8
-12.8778998461
C 0.04792551123830177 -0.5617035979499014 -0.125967154410448
H 0.49738435729305674 -0.05418815009207923 -0.972473125172342
H -0.6559758590844864 -1.317404878926033 -0.45690691046256166
H 0.8919056716129233 -1.1343845697593715 0.3566722972392437
O -0.612609709444261 0.37925066174632843 0.7008783460867871
H -1.1135626591192753 -0.03516183158705971 1.4409932242266754
H -0.03590639513969138 1.129028703084362 0.9758715729062796
Cl 2.0285922129638476 -2.49727741498293 -0.4532945477042321
8
-12.87800945824
C 0.04681538923835468 -0.5612830693656535 -0.12756972275047282
H 0.4954710128445722 -0.05286819292664417 -0.9739878108682066
H -0.6579592845341242 -1.3162784073016425 -0.45834575191414695
H 0.8914896888048607 -1.135451027869169 0.3528655346189566
O -0.611650525269873 0.37867165431782274 0.7016803266348106
H -1.1118722563213816 -0.036437883239044795 1.4419173751930328
H -0.03414678227971845 1.1277948718397364 0.9768423907914465
Cl 2.0296242740075394 -2.4960881026629784 -0.44783153038238965
8
-12.87811737107
C 0.04571840184241112 -0.5608701369286008 -0.12915734333924805
H 0.4935785936579767 -0.051561840712828474 -0.9754876534829611
H -0.6599212324405442 -1.315162035912966 -0.4597718968312723
H 0.8910718313896927 -1.1364948287513885 0.349111202647407
O -0.6106946234174851 0.37809424383890156 0.7024643950006211
H -1.110189263709152 -0.03771032416368246 1.4428266664539724
H -0.03239974651069873 1.1265590714047826 0.9778009936395626
Cl 2.030626270143923 -2.4948939794970673 -0.4424202829248613
8
-12.87822356491
C 0.04463694572859226 -0.56046344972064 -0.13072995333043583
H 0.4917068245172442 -0.05026951746897446 -0.9769720654002394
H -0.6618620738168314 -1.3140562877120083 -0.46118533583131927
H 0.8906511022734991 -1.1375159364458116 0.34540882279809265
O -0.6097458773579276 0.3775143522002031 0.7032323196445911
H -1.108513162961435 -0.038978181303439746 1.4437187542430345
H -0.03066305441631422 1.125323396273046 0.9787473912191791
Cl 2.031598400217042 -2.4936946272049387 -0.43706043060993865
8
-12.87832803003
C 0.043570991918061276 -0.560063808386876 -0.1322871613461701
H 0.4898558868893713 -0.04899100868207724 -0.9784410727477341
H -0.6637811896625168 -1.3129609073642299 -0.4625859286529261
H 0.8902269534575956 -1.1385144691009914 0.34175840010355896
O -0.6088022476797704 0.3769337479025546 0.7039831850347943
H -1.1068453565274239 -0.04024275724275701 1.4445946491203954
H -0.028937762725305145 1.1240869737726715 0.9796807621222932
Cl 2.0325408957536717 -2.492489157366668 -0.43175184388478854
8
-12.87843077078
C 0.04252100864385486 -0.5596716705622914 -0.13382526591192073
H 0.48802584466928217 -0.04772647232703654 -0.979894477287297
H -0.665678698386894 -1.3118760893300412 -0.46397373297896927
H 0.8897982162051177 -1.139489729207701 0.3381558045348788
O -0.6078648898982814 0.3763515597891455 0.7047179780726758
H -1.105185353475234 -0.04150394900687321 1.445453422066784
H -0.02722326791761278 1.1228502859494076 0.9806008719469795
Cl 2.0334543563433343 -2.4912771100225175 -0.42649382176264455
8
-12.87853181254
C 0.04148618669255823 -0.5592865310842408 -0.13534717078783726
H 0.48621619523371257 -0.0464778831893541 -0.981330712739576
H -0.6675538556824957 -1.3108014115206714 -0.465348234208421
H 0.8893664520449767 -1.1404428533254616 0.3346011771010889
O -0.6069328655958766 0.3757675914826023 0.7054365113048612
H -1.103533510015764 -0.04276199343668961 1.4462952608899344
H -0.025519752732858985 1.121614339205127 0.9815074940075776
Cl 2.034337432818602 -2.4900568696476495 -0.4212855129412004
8
-12.87863114753
C 0.04046578190844208 -0.5589085492080043 -0.1368533816463073
H 0.48442777145776117 -0.04524684147400071 -0.9827506097497912
H -0.6694066667608675 -1.3097372545316794 -0.46670941685549394
H 0.888932777617646 -1.1413747597577584 0.3310949744260653
O -0.6060055385394438 0.3751821050252081 0.7061389845009782
H -1.1018898203833412 -0.04401705806878951 1.4471200892592362
H -0.023827854287379213 1.1203807538461277 0.9824004349457024
Cl 2.0351889611516225 -2.4888271212316293 -0.4161260841768349
8
-12.87872876547
C 0.03946021639308639 -0.5585380618445513 -0.13834339961398107
H 0.48266119347590786 -0.04403288967003963 -0.9841551729869247
H -0.6712377070313386 -1.3086841421631064 -0.4680573613571053
H 0.888497830011119 -1.1422849992811974 0.32763812345014387
O -0.6050823933983016 0.3745951161805717 0.7068256484557947
H -1.1002541352116522 -0.04526911821105226 1.447927622512089
H -0.022147953751480296 1.1191491645639504 0.9832793047730263
Cl 2.036007609575244 -2.487587586018908 -0.4110154763466941
8
-12.87882464588
C 0.038470611635815166 -0.5581756619385446 -0.13981727352752873