16
 energy: -17.817703212227 gnorm: 0.000561614440 xtb: 6.6.1 (8d0f1dd)
C           -2.10579602055051        0.11912802926920       -0.53600812715402
C           -1.31551364797347       -0.14046787952207       -1.57967262597985
C            0.12814831373484       -0.11799060012919       -1.54658785356138
C            0.86699150747427        0.14530334771152       -0.46954014172363
H           -1.73086574011840        0.55823121694678        0.37011704727067
H           -3.17696088105808        0.03882646931875       -0.61518710617283
H           -1.75791703918129       -0.49504176511292       -2.50187880080660
H            0.62205505038911       -0.40935468397355       -2.46496796345888
H            1.94192769071844        0.08737059009138       -0.50054686885954
H            0.43860118680108        0.47726966216382        0.45789342682485
C           -1.61034862254528       -1.98332829360236        0.72375666182391
C           -0.30590679938163       -2.03309992261398        0.94550149522016
H           -2.29063374173290       -1.54535418644624        1.43434297385163
H           -2.06021533262512       -2.49565190956245       -0.10947884479711
H            0.14203445982294       -1.58468425184224        1.81647674231377
H            0.36729799823385       -2.53694230069739        0.27369294621449
