8
 energy: -12.783395537387 gnorm: 0.000888307787 xtb: 6.6.1 (8d0f1dd)
C            0.42990251461066       -0.92695181273351       -0.16072210529163
H            0.80954843122754       -0.20097111121780       -0.86227819477091
H           -0.44576163736011       -1.50087467431811       -0.42086925857056
H            0.93176189956714       -1.09182812545521        0.78002767927397
O           -0.99859688741520        0.73905625144915        0.80539664395777
H           -1.35039938440124        0.33646779272777        1.61311384326606
H           -0.41736726699956        1.47617630984697        1.04335028372903
Cl           2.04417184677071       -2.87274689529921       -1.30157689759376
