16
 energy: -17.822115502561 gnorm: 0.000963961667 xtb: 6.6.1 (8d0f1dd)
C           -2.11079377336332        0.22813413303019       -0.63110856506317
C           -1.30119583778695       -0.11061539090479       -1.62993858643351
C            0.14865443938926       -0.03516339214592       -1.61219508369184
C            0.90095385320040        0.26130721165932       -0.55716087534766
H           -1.74353210357433        0.64988856692453        0.28720740010903
H           -3.17966048139821        0.13109411405377       -0.71570285543779
H           -1.72843566441483       -0.49942625923190       -2.54572780245563
H            0.63228169410837       -0.27003735886206       -2.55237614174428
H            1.97538419850426        0.28243832289540       -0.62147512366037
H            0.47661233090699        0.49707205875341        0.40260593335173
C           -1.63685924144777       -2.14232468140763        0.87878631453860
C           -0.33500873663741       -2.19903407690043        1.07361990757274
H           -2.29848906926594       -1.65848080091487        1.57805427794750
H           -2.10569541072793       -2.60553329944799        0.02720385038672
H            0.13398244585069       -1.75177482102324        1.93537837259318
H            0.32469973865679       -2.69333080447913        0.38074193833124
