16
 energy: -17.811167549370 gnorm: 0.000879117029 xtb: 6.6.1 (8d0f1dd)
C           -2.19104672294740        0.12437121018036       -0.60972907315533
C           -1.33840079133104       -0.09832912902840       -1.63249940693830
C            0.06565838714592       -0.17476015910405       -1.46926427033752
C            0.65489031843599       -0.09364055626312       -0.24477852884646
H           -1.87555846885461        0.58214144892592        0.30867787095474
H           -3.25596531349134        0.03834212108605       -0.74853986021181
H           -1.73769765437379       -0.39223617767565       -2.59493128704087
H            0.64088613969778       -0.54125570742355       -2.30936589023167
H            1.71929585157627       -0.24511393512708       -0.15408596052266
H            0.21245809225870        0.49935205038318        0.53599226245686
C           -1.45860487490255       -1.86281505155013        0.71830157071811
C           -0.10504243487452       -1.85467748391007        0.72714591370828
H           -2.02909432508072       -1.43539277967277        1.52446247502806
H           -2.01175613590442       -2.40757605454916       -0.02505363407844
H            0.42589844429924       -1.55368835372552        1.61537800755626
H            0.43697787034600       -2.50050792054597        0.05620277194077
