8
 energy: -12.770468852364 gnorm: 0.000784195448 xtb: 6.6.1 (8d0f1dd)
C            0.57081556292268       -1.06979207350998       -0.25211374770799
H            0.93298169959302       -0.31235398693216       -0.93236451460851
H           -0.34787353863954       -1.59196126339488       -0.47721447354298
H            1.05659011207700       -1.21503491091312        0.70233458701667
O           -0.98936542108861        0.83310722725415        1.02974484120295
H           -1.62618755102689        0.61231347946107        1.72431212738814
H           -0.70154730528118        1.75010494412457        1.14258455822146
Cl           2.10784595744339       -3.04805568108960       -1.44084138396957
