16
 energy: -17.842492252546 gnorm: 0.000145258631 xtb: 6.6.1 (8d0f1dd)
C           -2.05710200259339       -0.15329557239175       -0.38025585140876
C           -1.28662250440172       -0.15099699317224       -1.60681864967717
C            0.06102369038614       -0.17107026241700       -1.55227408404262
C            0.74008898349276       -0.11350284012832       -0.30261538652235
H           -1.78256850259059        0.61897510655936        0.32913274733810
H           -3.13094355708103       -0.20365904949898       -0.51751422164594
H           -1.80225541735665       -0.29620864865001       -2.54471483789007
H            0.64032344387407       -0.35026274001422       -2.44836043437926
H            1.79569861487148       -0.33272765636137       -0.28321288292855
H            0.42344694243687        0.62599069094541        0.41505759307692
C           -1.60939969189446       -1.64835427919278        0.51056954371308
C           -0.17697539968778       -1.73586538475820        0.76196295151855
H           -2.20632101366123       -1.54852666912265        1.41059005161251
H           -1.98850944592073       -2.43499115534396       -0.13197985317773
H            0.17078288641683       -1.48230746410895        1.75015060795919
H            0.36223135570955       -2.53898356034419        0.28819566745388
