15
 energy: -25.347727653629 gnorm: 0.000623137622 xtb: 6.6.1 (8d0f1dd)
O            2.73078093884688        0.86385754757410        0.54252493016290
O            0.99518706117994        2.57821604569412        1.43367118356219
O           -1.27068420931938        1.95414202433908        0.32878379464512
O           -1.05615441844253       -0.49328487978313       -0.50602604919774
O            1.35220556227296       -1.28357359247419        0.05934668473960
H            2.01859323189261       -0.19413820478447        0.29643056971931
H            1.84282198806393        1.70800527637051        0.97387988421825
H           -0.12368369231066        2.24088267716331        0.86668485246233
H           -1.13193392970281        0.75070099629235       -0.13996395104224
H            0.15715643227791       -0.85759190359049       -0.21910820664541
H            1.23594976264126        3.39001825379962        0.98698727184972
H            3.22768825262836        0.63022414814242        1.32679683545791
H            1.68755670833114       -1.57780183879345       -0.78767166712027
H           -1.60083777588004       -0.97627696605458        0.11558668328095
H           -1.86717979948130        1.87099300410444        1.07286542090942
