16
 energy: -17.923531599750 gnorm: 0.000973002630 xtb: 6.6.1 (8d0f1dd)
C           -2.08255257960696       -0.30342468458216       -0.35197333871897
C           -1.28379473785390       -0.19692333888497       -1.61564818430946
C            0.03460400188679       -0.24472831526109       -1.51484623558588
C            0.62434720836329       -0.39147392413796       -0.14483764572298
H           -1.95780394593994        0.62428867148239        0.21922591902259
H           -3.14698390454719       -0.41174823987251       -0.56915195860198
H           -1.79690796366986       -0.09643728017656       -2.55930424612008
H            0.69087595082107       -0.18487492001573       -2.36901763137663
H            1.69888813076991       -0.57695749911233       -0.19937532141554
H            0.48385113390014        0.55366467758946        0.39353257034476
C           -1.59634689602225       -1.46369324379947        0.46720522792731
C           -0.05776868809982       -1.49804473224894        0.60612015271215
H           -2.05874410058781       -1.43343285298186        1.45658247215850
H           -1.92797373425488       -2.38918179583136       -0.00990738265366
H            0.22150775466849       -1.44694126035983        1.66124872487635
H            0.30770075217273       -2.45587773980694        0.22805983846463
16
 energy: -17.924191404599 gnorm: 0.000968633006 xtb: 6.6.1 (8d0f1dd)
C           -2.07943093043571       -0.30237465031452       -0.34775693412096
C           -1.28468135652398       -0.19568768711432       -1.61359531055533
C            0.03463694469852       -0.24033418591669       -1.51944253622869
C            0.63490219459090       -0.37794511669739       -0.15677092572488
H           -1.94554151909085        0.62041206870316        0.22921880227814
H           -3.14525717690702       -0.40150117367533       -0.56236435465873
H           -1.80133957266517       -0.10174667617230       -2.55601415972798
H            0.68476168088950       -0.18396329251200       -2.37880858568381
H            1.70552461792862       -0.57728332542978       -0.20949512800812
H            0.49589380134725        0.56183218727826        0.38789001301251
C           -1.60032523878477       -1.47166872985733        0.46279343037493
C           -0.06722095684283       -1.50687133101951        0.62025081561187
H           -2.07407161644006       -1.45283989403395        1.44727114603785
H           -1.92654153793299       -2.39163032202480       -0.02885139988032
H            0.20962967620612       -1.43330490339820        1.67315087488097
H            0.31195937196281       -2.46087944581492        0.25043721339303
16
 energy: -17.923570420009 gnorm: 0.000287138124 xtb: 6.6.1 (8d0f1dd)
C           -2.08891817177709       -0.29936245997732       -0.31202541052167
C           -1.31454079008397       -0.14026528590278       -1.58523541860412
C            0.00354135361719       -0.24780232938523       -1.53705731135901
C            0.67513994133825       -0.42536249921636       -0.21500820717178
H           -1.93502561157559        0.57927045167326        0.32422145517810
H           -3.15861746171818       -0.37845815541673       -0.51528292680883
H           -1.84962372947911        0.00901745684852       -2.51029599687813
H            0.62134577530898       -0.17726196754860       -2.41979017330736
H            1.70700038236349       -0.75313253550356       -0.33479659191756
H            0.69003507498157        0.54242127221373        0.29455528425061
C           -1.59187177098572       -1.52754202678543        0.39364778210176
C           -0.09350965121035       -1.44700466611069        0.71147317969589
H           -2.15125241283886       -1.68984852419115        1.31815245585134
H           -1.77610041774234       -2.39085209519162       -0.25142151521016
H            0.05828951203818       -1.13785255352133        1.74582342160204
H            0.35700635976397       -2.43175055998344        0.59095293409949
16
 energy: -17.927400038077 gnorm: 0.000152041157 xtb: 6.6.1 (8d0f1dd)
C           -2.20313796774683       -0.52086648562037       -0.37227590093999
C           -1.31746739514284        0.10451628509145       -1.40865531401902
C           -0.00071222449376       -0.01710820351242       -1.42381599654501
C            0.77846453405766       -0.78942141434857       -0.41242519418653
H           -2.53456850360004        0.26442229403309        0.31816397506892
H           -3.10279659839330       -0.91085435275338       -0.85807615252899
H           -1.81942461520222        0.69269184417517       -2.16512480634740
H            0.58141470947154        0.45251007034656       -2.20639278423530
H            1.12729741655420       -1.72951984797880       -0.84528586809951
H            1.65029292679436       -0.22307372811904       -0.08435155370640
C           -1.50051603022061       -1.61039545521801        0.38408000466113
C           -0.14487685593780       -1.12524684586065        0.87237978881719
H           -2.10847890537183       -1.93551166927812        1.23311625970975
H           -1.35305389487625       -2.47588853369432       -0.26726978496770
H           -0.25726628339539       -0.21365929200603        1.45731044806608
H            0.35772806950333       -1.87838114325680        1.47653584025243
16
 energy: -17.923981925706 gnorm: 0.000586974603 xtb: 6.6.1 (8d0f1dd)
C           -2.20106798370178       -0.51774773870948       -0.36933584087479
C           -1.31661561121299        0.10256312160274       -1.40993048799034
C            0.00044305060925       -0.01638041852483       -1.43037098409906
C            0.79029862201136       -0.78188200910459       -0.42547833243711
H           -2.52374313318786        0.26982404302142        0.32274308052746
H           -3.10560139544516       -0.90104580600586       -0.85140105447861
H           -1.82114994938082        0.68756275181169       -2.16728666117679
H            0.57639988216614        0.45393337428955       -2.21756543889315
H            1.14382213428260       -1.72241198429502       -0.85046705760606
H            1.65187770851042       -0.20904302601626       -0.08557991496859
C           -1.50502337022041       -1.61283044126176        0.38505358254496
C           -0.15516753207732       -1.13453767393901        0.88834128236240
H           -2.12070385213487       -1.94274130212773        1.22706412240278
H           -1.35419418975603       -2.47442825411481       -0.27071415659980
H           -0.26077833335967       -0.22411417310597        1.47421673535229
H            0.35410233489815       -1.89250694152025        1.47862408693356
16
 energy: -17.919732685731 gnorm: 0.000687938347 xtb: 6.6.1 (8d0f1dd)
C           -2.19989482535816       -0.52223297113706       -0.37122317147659
C           -1.31555742798869        0.10322089648850       -1.40878786192311
C            0.00215786244763       -0.00872276444331       -1.43348773261739
C            0.80312676186390       -0.77005962843037       -0.43762070884786
H           -2.52766968397360        0.26389830655109        0.32010760403368
H           -3.10164888649207       -0.90691014268678       -0.85765077269719
H           -1.82318273530285        0.68958400037686       -2.16314404525755
H            0.57153203650496        0.46928379155035       -2.22135672780844
H            1.15984072234813       -1.71059095108198       -0.85669102008755
H            1.65522724601808       -0.19243723809038       -0.08550570653176
C           -1.50822305882298       -1.61803640413014        0.38616203965486
C           -0.16492665155647       -1.14399172626919        0.90380698095872
H           -2.13167324134494       -1.94971675888775        1.22226457232955
H           -1.35268027265027       -2.47862965282946       -0.26977797501273
H           -0.26553629071032       -0.23479599025298        1.49034268373904
H            0.35200682701679       -1.90564924472706        1.48047480254382
16
 energy: -17.914802828543 gnorm: 0.000245468073 xtb: 6.6.1 (8d0f1dd)
C           -2.19787503026535       -0.52166455661489       -0.36870867167589
C           -1.31569061942618        0.10063695138413       -1.41012326922745
C            0.00254749604303       -0.00553243892576       -1.43954584651847
C            0.81551601935375       -0.75711452258750       -0.44909750304980
H           -2.51771289741496        0.26595741271702        0.32471390022121
H           -3.10406067493661       -0.90039251804667       -0.85151010941935
H           -1.82683284631246        0.68268948753933       -2.16548449632241
H            0.56483664601315        0.47363577345410       -2.23234159618752
H            1.18028957792895       -1.69667611883049       -0.86064133528601
H            1.65516763716721       -0.17064411058567       -0.08472840755986
C           -1.51194195772329       -1.62277334262756        0.38620998866449
C           -0.17493674611145       -1.15508156583345        0.91922861977812
H           -2.14302773810669       -1.95985040612502        1.21487549727627
H           -1.35226387591395       -2.47911781885308       -0.27429922858580
H           -0.27047717165190       -0.24835628010497        1.50852048424072
H            0.34936056335761       -1.92150242395875        1.48084493465159
16
 energy: -17.909326529660 gnorm: 0.000222572455 xtb: 6.6.1 (8d0f1dd)
C           -2.19636578118316       -0.52414503977309       -0.36803061617110
C           -1.31568329345827        0.09835910335022       -1.41069664537996
C            0.00313017622153       -0.00102384102697       -1.44473566320847
C            0.82825714554360       -0.74356027586146       -0.46057840351036
H           -2.51473551645763        0.26346929567213        0.32608489803912
H           -3.10340875256125       -0.90091185878813       -0.85088042162002
H           -1.83047295995978        0.67806833200314       -2.16557456520301
H            0.55815092121402        0.48249726328715       -2.24054608731028
H            1.20065085650841       -1.68209504091633       -0.86495413790479
H            1.65551331323034       -0.14883728475883       -0.08393271580108
C           -1.51492402981376       -1.62808024038878        0.38683803761557
C           -0.18487078298727       -1.16458460073481        0.93475993525473
H           -2.15355121427068       -1.96966629844649        1.20840209685941
H           -1.34986678580279       -2.48128078827093       -0.27642638355974
H           -0.27632496468087       -0.25964664004051        1.52582161279488
H            0.34740005045757       -1.93434856330921        1.48236202010693
16
 energy: -17.903424423279 gnorm: 0.000206962452 xtb: 6.6.1 (8d0f1dd)
C           -2.19431449675127       -0.52480047799483       -0.36646577339422
C           -1.31585798921407        0.09410494562059       -1.41328241291947
C            0.00352734616225        0.00193362170300       -1.45083227398535
C            0.84077676294590       -0.72645713212966       -0.46926976487494
H           -2.50513480940497        0.26390335615150        0.32982519361284
H           -3.10549611791453       -0.89584295111946       -0.84590749496596
H           -1.83418476484631        0.66757094163892       -2.17060727442392
H            0.55138642073854        0.48599877655989       -2.25189302840517
H            1.22646592261686       -1.66216122295002       -0.86525808556660
H            1.65180680334173       -0.11960597836662       -0.07907799767106
C           -1.51820010165765       -1.63395606549253        0.38554838134610
C           -0.19561218216841       -1.17641920020115        0.95076403323242
H           -2.16501446837539       -1.98257998242789        1.19822767692025
H           -1.34716485656984       -2.48183628901752       -0.28301610400549
H           -0.28426608779298       -0.27506351778058        1.54619079820809
H            0.34418100089328       -1.95057530219437        1.48296708789080
16
 energy: -17.897205551327 gnorm: 0.000633165896 xtb: 6.6.1 (8d0f1dd)
C           -2.19215663652902       -0.52566812945180       -0.36157023912504
C           -1.31838162266469        0.09220642947395       -1.41256168394099
C            0.00147607938128        0.00739462445651       -1.45721057397608
C            0.85313388931759       -0.70824166005456       -0.48166253747374
H           -2.49553790906168        0.26233555270539        0.33834697599357
H           -3.10728333142892       -0.89135327886067       -0.83711269180931
H           -1.84238824068629        0.65946269165511       -2.17037431176583
H            0.53995150177189        0.49151332018471       -2.26501856273092
H            1.25162688172078       -1.63981253360065       -0.87167575602737
H            1.64770910006790       -0.08984325034252       -0.07876509424349
C           -1.52016271989731       -1.64077931735438        0.38533695212113
C           -0.20334890231136       -1.19035757890596        0.96415487895127
H           -2.17341940926952       -1.99534478376426        1.19081186812514
H           -1.34599669254175       -2.48364677562740       -0.28857182712599
H           -0.28794089151737       -0.29417778390553        1.56636655267270
H            0.34561728564976       -1.96947400460685        1.47741901135736
16
 energy: -17.889964651720 gnorm: 0.000419405658 xtb: 6.6.1 (8d0f1dd)
C           -2.07031802759396       -0.30906978113868       -0.27958842104820
C           -1.31654056582236       -0.11605524432340       -1.55841472050410
C            0.00820435355385       -0.19125823681457       -1.56665756450446
C            0.77226864582965       -0.33866896915435       -0.31969005896244
H           -1.88068323152320        0.52782312719646        0.40025568726702
H           -3.14414135430573       -0.34352052121816       -0.47499222163206
H           -1.87880954244384       -0.00036618981911       -2.47275235690243
H            0.56656670050634       -0.14566784254834       -2.49256069578047
H            1.75824618984040       -0.76850151689776       -0.44092740955291
H            0.80619350308391        0.57221183576915        0.26845485218606
C           -1.61146472545660       -1.58531383918905        0.36445339671734
C           -0.17828518592899       -1.50769320651522        0.82954305181257
H           -2.25030974069562       -1.81893413631548        1.22239199599682
H           -1.71992610397067       -2.40129530526214       -0.35564807808229
H           -0.06544279323570       -1.04395814656947        1.80178431298174
H            0.35734026015955       -2.44551850519915        0.77226119100611
16
 energy: -17.884191600095 gnorm: 0.000492532687 xtb: 6.6.1 (8d0f1dd)
C           -2.05893265863973       -0.30174150925597       -0.27739439820072
C           -1.31216281026880       -0.12718198042873       -1.56208720565533
C            0.01434101926317       -0.19070743009204       -1.57040317103952
C            0.77290976099036       -0.30502610096777       -0.32136275184094
H           -1.84924319233262        0.53351101066366        0.39832060780471
H           -3.13474056391642       -0.31905190231036       -0.46380002962966
H           -1.87767182360687       -0.04251704439505       -2.47772750137736
H            0.57138206737767       -0.17009851967317       -2.49804408475459
H            1.77234569439688       -0.70586915549522       -0.42175647378301
H            0.75499481486427        0.59389227856040        0.28379162837310
C           -1.61820236604477       -1.58312607807832        0.36919784115949
C           -0.18278593712628       -1.53563842502531        0.82594832146465
H           -2.25766105676671       -1.79808374978340        1.23155252079937
H           -1.74893683998059       -2.40002662221781       -0.34597030878123
H           -0.04777235839713       -1.09716694105960        1.80593131654040
H            0.35503463218540       -2.46695430843640        0.72171664992032
16
 energy: -17.878431822521 gnorm: 0.000635059465 xtb: 6.6.1 (8d0f1dd)
C           -2.05044122739171       -0.29718164818366       -0.27530278819835
C           -1.30861723447027       -0.13418505735037       -1.56340820648580
C            0.01938693852227       -0.18800197353271       -1.57339510314470
C            0.77672392039664       -0.27753083139111       -0.32611606903616
H           -1.82769450123130        0.53594712474771        0.39862299291313
H           -3.12742092158847       -0.30241580491569       -0.45623055820246
H           -1.87654553813272       -0.07279083577529       -2.47942589461011
H            0.57364591027643       -0.18653535431299       -2.50310378728325
H            1.78399591498143       -0.65977657692440       -0.41232180318698
H            0.72152329666406        0.60808105924679        0.29451950238056
C           -1.62344101406352       -1.58271894715721        0.37244132629625
C           -0.18851949079333       -1.55857094028756        0.82620934844438
H           -2.26478050102444       -1.78425891080081        1.23665129098060
H           -1.76948975754579       -2.39921865177856       -0.33997308359315
H           -0.03795085048268       -1.13344457760125        1.80925868056569
H            0.35252343788170       -2.48318455198603        0.68948711315336
16
 energy: -17.872687607942 gnorm: 0.000766448394 xtb: 6.6.1 (8d0f1dd)
C           -2.04156730277026       -0.29203033913381       -0.27230792074750
C           -1.30556069513868       -0.14125932823404       -1.56429454380121
C            0.02415145249457       -0.18571958851265       -1.57569609518377
C            0.77972166150030       -0.24946568371978       -0.33076720147497
H           -1.80291767337647        0.53756732913200        0.40003033172372
H           -3.11954443812774       -0.28331493731006       -0.44639969369887
H           -1.87572990845892       -0.10539118827766       -2.48014507737744
H            0.57603275902499       -0.20529711493831       -2.50674991754137
H            1.79390685300945       -0.61361430533498       -0.40322598753275
H            0.68879863683271        0.62150773085935        0.30437538607595
C           -1.62854161473115       -1.58269301139433        0.37443645612262
C           -0.19499559169299       -1.58061410849580        0.82597806239226
H           -2.27209645499836       -1.77262218034355        1.23962536887771
H           -1.78836004127103       -2.39752616601714       -0.33662767984240
H           -0.02983142304234       -1.16830878112635        1.81121654937340
H            0.34943216274668       -2.49700480516622        0.65846492362783
16
 energy: -17.866965979013 gnorm: 0.000697045973 xtb: 6.6.1 (8d0f1dd)
C           -2.03544146990779       -0.28994357184895       -0.27045143817680
C           -1.30265150962538       -0.14353012268895       -1.56352008781185
C            0.02842036210669       -0.18146347419526       -1.57839417052667
C            0.78644570471026       -0.22802897113450       -0.33907905793728
H           -1.79082476027553        0.53726870331559        0.40285857203000
H           -3.11382878307144       -0.27418807570173       -0.44227685263462
H           -1.87479097286711       -0.12305490158825       -2.47868356082215
H            0.57584320737918       -0.21511017078343       -2.51186063771090
H            1.80387518326086       -0.58289157837567       -0.40305960781899
H            0.67088156704948        0.62864533594226        0.31022328192496
C           -1.63228159606668       -1.58365345580583        0.37659347804250
C           -0.20182830445105       -1.59873378700650        0.83030823334839
H           -2.27957268944186       -1.76468159108633        1.24150278830457
H           -1.80138976428115       -2.39778567520793       -0.33379754989291
H           -0.02650452922259       -1.19039384078347        1.81486866750618
H            0.34654673670433       -2.50824130105618        0.64268090317637
16
 energy: -17.861318231518 gnorm: 0.000877170180 xtb: 6.6.1 (8d0f1dd)
C           -2.02835014000633       -0.28640373460827       -0.26790782701046
C           -1.30001700839888       -0.14805072379012       -1.56310302218748
C            0.03277501126099       -0.17827461503288       -1.58027113225804
C            0.79137980872314       -0.20345876488377       -0.34590320315241
H           -1.77266843983369        0.53718606277139        0.40536727661963
H           -3.10731365612110       -0.26022150409866       -0.43503185846006
H           -1.87356126046772       -0.14852106803118       -2.47757868801487
H            0.57684443368586       -0.22979612790889       -2.51501955344453
H            1.81343581598520       -0.54484270182222       -0.40027449098001
H            0.64751812888745        0.63659923693102        0.31792388600859
C           -1.63661085491477       -1.58416588089752        0.37816916466569
C           -0.20881830301250       -1.61816250837925        0.83212080971707
H           -2.28642632551365       -1.75542085951285        1.24336694256094
H           -1.81657148551339       -2.39653618790431       -0.33143548089208
H           -0.02190902747010       -1.21616286359155        1.81654636034757
H            0.34319168470911       -2.51955423724072        0.62094377748206
16
 energy: -17.855811984206 gnorm: 0.000765029088 xtb: 6.6.1 (8d0f1dd)
C           -2.02244475601606       -0.28392653448346       -0.26533389030459
C           -1.29776279415840       -0.15053754412720       -1.56181784115176
C            0.03669443722891       -0.17495072692934       -1.58203599660350
C            0.79792793053804       -0.18162062676539       -0.35429502847802
H           -1.75924646360943        0.53635148081000        0.40883795841004
H           -3.10174411351096       -0.24995832638386       -0.42936070125018
H           -1.87246970824781       -0.16853120886504       -2.47536270851237
H            0.57656033844595       -0.24235742462444       -2.51838743920973
H            1.82285210004042       -0.51376465617692       -0.40198690898602
H            0.63146478799443        0.64194176839827        0.32351944198361
C           -1.64019768235194       -1.58541435934308        0.37912165738218
C           -0.21645579005564       -1.63500098389132        0.83650688103455
H           -2.29393206843006       -1.74956549566593        1.24279988008811
H           -1.82725528916541       -2.39541324988187       -0.33124071127197
H           -0.02111771528608       -1.23467836948808        1.81911337777037
H            0.34002516858376       -2.52836022058239        0.60783499009730
16
 energy: -17.850493941426 gnorm: 0.000394338280 xtb: 6.6.1 (8d0f1dd)
C           -2.01703996293793       -0.28201666369731       -0.26383593877823
C           -1.29499168280041       -0.15310928106410       -1.56085671178525
C            0.04126959469875       -0.17106921443050       -1.58328874729075
C            0.80457238948899       -0.15950387301199       -0.36224642380822
H           -1.74839469583876        0.53592319422213        0.41081668582180
H           -3.09650532889480       -0.24184660554637       -0.42609056567472
H           -1.86998633124402       -0.18795635631297       -2.47370055100943
H            0.57754396836650       -0.25335155709637       -2.52071590468358
H            1.83240064454141       -0.48185032587908       -0.40319278246376
H            0.61518637447015        0.64590396615063        0.33001914256093
C           -1.64414061271555       -1.58602449587159        0.38123450039252
C           -0.22399262728405       -1.65252059981185        0.84005712428412
H           -2.30079784146971       -1.74039954657916        1.24474996634256
H           -1.84046115373928       -2.39512485184044       -0.32788980251835
H           -0.01799003023921       -1.25522906187304        1.82120091716705
H            0.33622567759817       -2.53761120535854        0.59165205244503
16
 energy: -17.845394123521 gnorm: 0.000493993752 xtb: 6.6.1 (8d0f1dd)
C           -2.01105105675133       -0.27962791123909       -0.26182045179006
C           -1.29264469902619       -0.15673955489820       -1.55994467086397
C            0.04566873196754       -0.16775214725620       -1.58415400204050
C            0.80996091241935       -0.13564608401642       -0.36973865759394
H           -1.73423456320868        0.53524666811060        0.41286776588755
H           -3.09068344337815       -0.23121866272877       -0.42062488490328
H           -1.86771610460097       -0.21147298944783       -2.47171395335364
H            0.57892888351821       -0.26647057369661       -2.52187533967125
H            1.84138462102304       -0.44571704946553       -0.40339073808390
H            0.59574239290480        0.64974912105132        0.33711232065182
C           -1.64806016310010       -1.58664040914510        0.38302584369572
C           -0.23138494240502       -1.67068715382924        0.84203366687207
H           -2.30682794404155       -1.73072376903105        1.24701068213933
H           -1.85488417340501       -2.39427640089696       -0.32490102461797
H           -0.01429768110798       -1.27753848231812        1.82195895362948
H            0.33299761119214       -2.54627107919214        0.57206745104277
16
 energy: -17.840536979632 gnorm: 0.000487618666 xtb: 6.6.1 (8d0f1dd)
C           -2.00671076814098       -0.27839435487240       -0.25924215738316
C           -1.29091065716917       -0.15745794703248       -1.55755931201042
C            0.04930454241942       -0.16435111822898       -1.58513605515112
C            0.81808033374552       -0.11626821407399       -0.37959477316475
H           -1.72531310078671        0.53302018016978        0.41746419797578
H           -3.08635091387168       -0.22486715153399       -0.41650860436594
H           -1.86626442546028       -0.22615321528958       -2.46817757644558
H            0.57790541174432       -0.27584902871351       -2.52430967961292
H            1.85111633020276       -0.41952045950763       -0.41044643412274
H            0.58712587801764        0.64996335495519        0.34170245566128
C           -1.65124384508577       -1.58879608968133        0.38309088620659
C           -0.24020468874022       -1.68508100510432        0.84829902754560
H           -2.31495529464255       -1.72825183301634        1.24408861962714
H           -1.86150560741686       -2.39357386084233       -0.32688419747762
H           -0.01713959608776       -1.28797850825983        1.82451084545847
H            0.32996478327213       -2.55222722696805        0.56661571825960
16
 energy: -17.835936971757 gnorm: 0.000548723819 xtb: 6.6.1 (8d0f1dd)
C           -2.00196709643173       -0.27674920975970       -0.25756735839860
C           -1.28868254041254       -0.15927188443200       -1.55578022235155
C            0.05374667413902       -0.16133200576882       -1.58572687773583
C            0.82508247950832       -0.09516156194934       -0.38858804400480
H           -1.71634142793376        0.53202015518550        0.42043704599149
H           -3.08175765140865       -0.21795536099681       -0.41311602210126
H           -1.86371223075342       -0.24456525957061       -2.46522186738615
H            0.57833345735760       -0.28728353858994       -2.52538599924548
H            1.86098740984500       -0.38788095535080       -0.41560151058838
H            0.57397230582183        0.64906279513415        0.34790698447174
C           -1.65479429771384       -1.58956757406797        0.38464047144171
C           -0.24837849271121       -1.70110819470948        0.85259524950207
H           -2.32164413623242       -1.72085114881114        1.24453404651457
H           -1.87248859535896       -2.39256414064403       -0.32522167370298
H           -0.01593253436096       -1.30373739211414        1.82603392421734
H            0.32647505864739       -2.55884120155222        0.55397481437562
16
 energy: -17.831601966715 gnorm: 0.000447330253 xtb: 6.6.1 (8d0f1dd)
C           -1.99633972827442       -0.27522753708415       -0.25660242788715
C           -1.28623789370606       -0.16371979894066       -1.55510792716159
C            0.05869858330280       -0.15824343777445       -1.58557668210955
C            0.83003302393704       -0.07112812108029       -0.39572353424940
H           -1.70282939452865        0.53100972438235        0.42079686552419
H           -3.07613575811221       -0.20829756744880       -0.40855202285742
H           -1.86014034862835       -0.26918135322887       -2.46311168840904
H            0.58123767264655       -0.29841628913794       -2.52445958991958
H            1.86980738172761       -0.34962512383540       -0.41697963951186
H            0.55574472513326        0.64922243121714        0.35540167781409
C           -1.65948450160359       -1.58982143016428        0.38769963252492
C           -0.25651288342534       -1.71945739229533        0.85364536485234
H           -2.32695991449360       -1.70849501878836        1.24895596494296
H           -1.88909153237606       -2.39219699316432       -0.31926594152542
H           -0.01140330735561       -1.32678709420212        1.82552934556885
H            0.32251225777496       -2.56542147644905        0.53126356340944
16
 energy: -17.827545510775 gnorm: 0.000386919804 xtb: 6.6.1 (8d0f1dd)
C           -1.99296665647339       -0.27410358075681       -0.25317527226394
C           -1.28514647254720       -0.16217392187874       -1.55144681719765
C            0.06197688685232       -0.15518305735135       -1.58645504070254
C            0.83980109329323       -0.05505864553403       -0.40748387924081
H           -1.69710198311733        0.52820395771718        0.42763719573078
H           -3.07274596054152       -0.20370474976257       -0.40470811026413
H           -1.85901121624508       -0.27885719261760       -2.45811362150911
H            0.57853227325428       -0.30648807705529       -2.52709582145395
H            1.88054498997693       -0.32850126961567       -0.43062227085064
H            0.55477389412402        0.64332927014897        0.35927450621311
C           -1.66241921221848       -1.59268786624186        0.38643022323831