16
 energy: -17.817702294835 gnorm: 0.000950203134 xtb: 6.6.1 (8d0f1dd)
C           -2.23951164038080        0.23967953007524       -0.71580813043037
C           -1.35706946971050       -0.07183180019942       -1.66447087944364
C            0.06960781998875       -0.18241323934036       -1.46918019574049
C            0.69872432366588        0.03420968123631       -0.31230579322894
H           -1.94369232755128        0.54762485768622        0.26988231606313
H           -3.29730163534345        0.24885680404830       -0.91703154596171
H           -1.71656075542072       -0.33475513667602       -2.65146303469536
H            0.62988934784284       -0.56750260107209       -2.31207589263360
H            1.76207080590947       -0.11087445750370       -0.22054107449906
H            0.21175162444015        0.49844339724667        0.52539762943975
C           -1.43724833185628       -2.00035909898670        0.85324393337374
C           -0.11366552050889       -2.02932294140124        0.84288348641807
H           -1.99123282910935       -1.51977170844518        1.64260054782114
H           -2.02374292953530       -2.46604092456913        0.08029794368826
H            0.46881015318274       -1.62884792517869        1.65555153998152
H            0.43206974638652       -2.57288091492052        0.09093211084725
