8
 energy: -12.799827239889 gnorm: 0.000809722308 xtb: 6.6.1 (8d0f1dd)
C            0.62582411871210       -1.24849228894608       -0.40836848437915
H            0.88058849822839       -0.47824566191672       -1.12025109298879
H           -0.27483240067467       -1.82132778948700       -0.56684900315539
H            1.03112427382881       -1.18477535614331        0.58998707699632
O           -0.95303380421929        0.93913855054339        1.21746829711523
H           -1.79455342298448        0.79789591350437        1.67616390629286
H           -0.66287382473535        1.85531991982495        1.34409609061285
Cl           2.15101607784466       -2.90118555238070       -1.23580479649407
