8
 energy: -12.832744632054 gnorm: 0.000596105084 xtb: 6.6.1 (8d0f1dd)
C            0.27751364541233       -0.77906048477770       -0.15355708810792
H            0.60664310868385       -0.12753316506420       -0.95065722901627
H           -0.55285352744678       -1.42209283496645       -0.40905232219398
H            0.89452576203092       -0.94691994997582        0.73812027493492
O           -0.63638265078499        0.35587786606120        0.62243496778680
H           -1.12044327349774       -0.03000598734575        1.38346231872211
H           -0.09267318375285        1.11884801476498        0.91218455983710
Cl           1.62692963535522       -2.21078572369628       -0.64649348796266
