16
 energy: -17.818569213087 gnorm: 0.000560321318 xtb: 6.6.1 (8d0f1dd)
C           -2.30365126273268        0.33309333143298       -0.85744084387527
C           -1.37013116236975        0.03430005400142       -1.75695719035188
C            0.03264261365678       -0.18990316467192       -1.47341107919661
C            0.62354484015646        0.00645483192761       -0.29468731329492
H           -2.07595798588492        0.46628988146457        0.18483464832468
H           -3.33517302770212        0.45950596323127       -1.13857617375481
H           -1.65971373011615       -0.09421284021708       -2.79264910001396
H            0.60916309455999       -0.60689658579148       -2.28968346726239
H            1.67465110249202       -0.18358429473411       -0.15933930346566
H            0.11934023849391        0.49296947152757        0.52071902560522
C           -1.35082703314980       -2.08641080364578        1.00762398869384
C           -0.03428028196730       -2.09384121884786        0.89235224510184
H           -1.84831255888947       -1.61448217680425        1.83908417927626
H           -1.99093714196809       -2.52651587984157        0.26195463189989
H            0.60392054605394       -1.69896114219439        1.66537035998794
H            0.45862013136681       -2.61359190483616        0.08871835332529
