12
 energy: -21.532561913404 gnorm: 0.000303643870 xtb: 6.3.2 (452493c)
C         2.24933152307143    0.07251807452871   -0.67134087764789
H         2.45061275706543   -0.82630461162247   -1.22766423194057
H         2.11447715166060    0.97550188123503   -1.24319427161466
C         2.24917358617712    0.07359736981192    0.67621138317129
H         2.11415860242037    0.97748062417500    1.24660480826691
H         2.45027695717397   -0.82435014164002    1.23401825623659
O        -1.21596467742368   -0.91384823502131    0.00379184280287
O         0.33091844215033   -0.33633918413966    0.00329083631637
H         0.06071729687363    0.60598521330224    0.00135297098040
C        -2.06926051116808    0.04119667131069    0.00165982921770
H        -3.09964651705599   -0.36675320060469    0.00270803895615
O        -1.83748234994473    1.22831647466439   -0.00027013374528
