8
 energy: -12.849271603098 gnorm: 0.000651538589 xtb: 6.6.1 (8d0f1dd)
C            0.48696275718692       -1.65841834912692       -0.12868812389960
H            0.18646385048403       -0.63797630159339        0.22694897971662
H           -0.23638848742813       -2.07321111997871       -0.81786727747076
H            0.86949204192373       -2.26186182738686        0.68382823954150
O           -0.44488326316565        1.18535717579753        0.85268789154385
H           -0.86329453675712        1.08658992280844        1.72042347817699
H           -1.09378463832134        1.52880042945624        0.22175379856904
Cl           2.09869179207652       -1.21095219497571       -1.26264499217794
