16
 energy: -17.805185434620 gnorm: 0.000558530995 xtb: 6.6.1 (8d0f1dd)
C           -1.97766059333046       -0.16868723312007       -0.32464412306766
C           -1.26917321036926       -0.17350776392888       -1.53787568053137
C            0.13116777507091       -0.10984065056151       -1.57737295719692
C            0.91916158515671        0.13660970945534       -0.50294456226728
H           -1.62248953091892        0.51314837542136        0.43699628792796
H           -3.05700051783877       -0.14432560444717       -0.42116625663059
H           -1.78296362650648       -0.49239347701130       -2.43398269065630
H            0.60813876836985       -0.34401770350059       -2.52135735234864
H            1.98951611189328        0.04484036119234       -0.56590827535304
H            0.52814134245787        0.49854665645744        0.42918092237089
C           -1.70909497783471       -1.73621003361679        0.51829518432102
C           -0.39453283652247       -1.94462483077205        0.93283814337507
H           -2.41877623300946       -1.56957083834077        1.32104378588782
H           -2.07849017693843       -2.43572958042892       -0.22286809543085
H           -0.02227925829017       -1.50683679490911        1.84150569408704
H            0.30923376061029       -2.48318706988947        0.32617293651305
