8
 energy: -12.793903181751 gnorm: 0.000460648901 xtb: 6.6.1 (8d0f1dd)
C            0.32431936035791       -0.69116128435780       -0.77557416721098
H           -0.09843727289832       -0.05811791102818       -1.59607770881103
H           -0.35656999948992       -1.56596699466984       -0.73829926899907
H           -0.64016081280698       -1.01331966786841        2.57764855404430
O           -0.12295635909292        0.11991461140524        0.40150040331142
H           -0.46748520604866       -0.60437950455160        1.81781161579379
H            0.56193836476213        0.75541448495285        0.68823366679897
Cl           1.80261144121667       -0.98405599888473       -0.87880110092728
8
 energy: -12.798245281808 gnorm: 0.000107934611 xtb: 6.6.1 (8d0f1dd)
C            0.53319479846565       -0.47795522202264       -0.30389499614732
H            0.03317185353206       -0.36519008378716       -1.25984068890055
H           -0.51286051585691       -2.07197801604221        0.16007036933489
H           -0.91489758594054       -2.74045122049937        0.41297342980404
O           -0.18151875127668        0.48205023147787        0.66294738567305
H            0.18715727741209        0.39611753121847        1.57272464392997
H           -0.15585951355669        1.42339029750573        0.36379645407959
Cl           2.01487195322113       -0.68765578285079       -0.11233460377370
8
 energy: -12.808144836404 gnorm: 0.000926890091 xtb: 6.6.1 (8d0f1dd)
C           -0.36708284262263       -0.56230936040431        0.07047931188115
H           -1.03431279580633        0.12288454915223       -0.57137544637042
H            2.29459258548562       -3.37390722227454       -1.83926452022942
H           -1.23819312259465       -1.06616710775765        0.63397083197006
O            0.10458868553696        0.40830608592026        1.22129526401160
H            1.05605654833689        0.66153016624163        1.18185060809670
H           -0.51202144013265        1.16702761938924        1.39362131838174
Cl           0.69963189779774       -1.39903699526718       -0.59413537373912
8
 energy: -12.776308678521 gnorm: 0.000650747035 xtb: 6.6.1 (8d0f1dd)
C            0.18556479370795       -0.56354756134655        0.03716948258795
H           -0.17246646989836       -0.09690400639597       -0.89495855891960
H            0.03151730995221       -3.45940814534635       -2.08914824587508
H           -0.53526354655748       -1.34091426502077        0.33879972305211
O           -0.26651924939031        0.59573529637395        1.07274108687553
H           -0.13204570219652        0.30424748677321        2.00329062575584
H            0.23818760281945        1.42505115511294        0.90733193762277
Cl           1.65428477756093       -0.90593222515224        0.12121594290045
8
 energy: -12.755147152417 gnorm: 0.000533830824 xtb: 6.6.1 (8d0f1dd)
C            0.23491386344631       -0.96000830612164       -0.18988570862860
H           -0.04408429183785       -0.22345849907416       -0.97443934374852
H           -0.01196980380667       -1.88800439477439       -1.06742171303670
H           -0.55406841611738       -1.44310958802078        0.42857267813352
O            0.07148565855323        0.33128129527213        0.85192299911479
H           -0.12880294186224        0.20667601218612        1.80735236933704
H           -0.25612270558024        1.22261787717078        0.59402542062771
Cl           1.69190815320477       -1.28766666163809        0.04631529220065
8
 energy: -12.763549598566 gnorm: 0.000499957942 xtb: 6.6.1 (8d0f1dd)
C            0.23572549734119       -1.00872225368173       -0.19611790919098
H           -0.17310483998635       -0.29416297037171       -0.94569344844931
H           -0.03389625962627       -1.92796009331306       -0.97855455197179
H           -0.43322044704832       -1.49155884848488        0.55139948766128
O            0.05147175064054        0.33187870499210        0.84479898702189
H           -0.30061942560036        0.28036791471353        1.76106059478388
H           -0.07541134449844        1.25835214376136        0.54176611278975
Cl           1.73231458477799       -1.18986686261554       -0.08221727864462
8
 energy: -12.749698573651 gnorm: 0.000808688056 xtb: 6.6.1 (8d0f1dd)
C            0.44390074276245       -0.97666834627851       -0.26994733490336
H            0.58494898818333       -0.11174583923190       -0.93835540883168
H           -0.56539377014312       -1.39469017992378       -0.41447356602658
H            0.79595424700444       -0.84226074074584        0.81277046058333
O           -0.44501514940378        0.19992125270448        0.67035705316865
H           -1.15059492384782        0.00452030939547        1.33240927577979
H           -0.14137347911467        1.11513988425523        0.88253404512710
Cl           1.48083286055927       -2.03588860517509       -0.57885253089715
8
 energy: -12.759619641476 gnorm: 0.000525701868 xtb: 6.6.1 (8d0f1dd)
C            0.45443908403643       -0.99435941681688       -0.28405947078686
H            0.59481350642579       -0.11917648927930       -0.93683637439042
H           -0.56131068544099       -1.39740450410400       -0.41402076387113
H            0.77448280541475       -0.83084956985963        0.80241310300938
O           -0.44645757321324        0.21031503049208        0.68327589343578
H           -1.15304839976617        0.02007707148933        1.34393094261584
H           -0.14840470180746        1.12633626249147        0.89045192731483
Cl           1.48874548035089       -2.05661064941304       -0.58871326332738
8
 energy: -12.768967490951 gnorm: 0.000973712439 xtb: 6.6.1 (8d0f1dd)
C            0.46563495528303       -1.01023682240298       -0.29706806167238
H            0.59896592305989       -0.12201966476467       -0.93092214425434
H           -0.55273607097062       -1.40736670396783       -0.41910339821441
H            0.74217882955257       -0.83369660961312        0.79727018431689
O           -0.45221977609062        0.21986635881240        0.69575851606602
H           -1.16639404928074        0.04632101357543        1.35051228191275
H           -0.14031973416933        1.12867527710961        0.90377300774881
Cl           1.50814943861585       -2.06321511374882       -0.60377839190332
8
 energy: -12.777734539721 gnorm: 0.000662676891 xtb: 6.6.1 (8d0f1dd)
C            0.47521325141007       -1.02733778063061       -0.31051923044217
H            0.61752384623348       -0.13308381941840       -0.93332186372336
H           -0.55083568055957       -1.40450280539454       -0.42352180620039
H            0.72178834585976       -0.81340386861691        0.78504909039645
O           -0.45139347261387        0.23260584745941        0.70985099344361
H           -1.16623078086948        0.05256866835805        1.35914277128465
H           -0.15028517081780        1.14476392420765        0.91444330699978
Cl           1.50747917735739       -2.09328243096462       -0.60468126775852
8
 energy: -12.785865829837 gnorm: 0.000481416952 xtb: 6.6.1 (8d0f1dd)
C            0.48588810882995       -1.04190944062012       -0.32430827535499
H            0.63155262685971       -0.13977341684424       -0.93416259914617
H           -0.54427707457591       -1.40772852104069       -0.43490462140734
H            0.69434013606162       -0.80147268544331        0.77455548668033
O           -0.45609053428283        0.24270445168233        0.72375096241958
H           -1.17266434651834        0.06432920070640        1.36931893683331
H           -0.15378797131337        1.15232779707736        0.92945792486336
Cl           1.51829857093919       -2.11014965051772       -0.60726582088808
8
 energy: -12.793355955745 gnorm: 0.000532195990 xtb: 6.6.1 (8d0f1dd)
C            0.49526680113475       -1.05603541434693       -0.33876956990941
H            0.64191488185874       -0.14872906213194       -0.94064331598597
H           -0.53820946302421       -1.41342571756291       -0.44574548935829
H            0.66755799326753       -0.78484464307867        0.76157170251478
O           -0.45983331412761        0.25353738647212        0.73865808620964
H           -1.17645735171641        0.07291765583609        1.38184201841117
H           -0.15622826185740        1.16092293663640        0.94683691341595
Cl           1.52924823046463       -2.12601540682421       -0.60730835129787
8
 energy: -12.800211283201 gnorm: 0.000611957807 xtb: 6.6.1 (8d0f1dd)
C            0.50294829904004       -1.06991939099233       -0.35422640491145
H            0.64748472088389       -0.16032590278215       -0.95338929998813
H           -0.53178265171324       -1.42459911771975       -0.45792387459609
H            0.63578995394522       -0.76234816681963        0.74706695258981
O           -0.46182968324272        0.26487636239264        0.75513059532623
H           -1.17921372887313        0.07927836261617        1.39398730473637
H           -0.15429536260601        1.16892007396628        0.96762741798195
Cl           1.54415796856593       -2.13755448566120       -0.60183069713870
8
 energy: -12.806486800280 gnorm: 0.000401817042 xtb: 6.6.1 (8d0f1dd)
C            0.50763516550211       -1.08242137930238       -0.37601865639855
H            0.65671535726484       -0.17609648251615       -0.97924166229331
H           -0.52644901839019       -1.43668159522551       -0.48843622659102
H            0.58478502637173       -0.72465002953642        0.72463150593461
O           -0.46241066521302        0.27181251232966        0.77584742369281
H           -1.17099334993619        0.08125744966341        1.42266570673629
H           -0.14783338328412        1.17284051172063        0.98831404865608
Cl           1.56181038368487       -2.14773325213328       -0.57132014573689
8
 energy: -12.826993473043 gnorm: 0.000636695835 xtb: 6.6.1 (8d0f1dd)
C            0.36670153488928       -1.06094213268049       -0.69276956337029
H            0.22838306096508       -0.30263526836085       -1.46163094019445
H           -0.43816487494121       -1.79422604347626       -0.68886624810602
H           -0.06561585968106       -0.62316770148952        1.64096242573790
O           -0.24783320893841        0.04440307799661        0.93792698075240
H           -1.08945940888252        0.51750800596648        1.19047236851898
H            0.47919068334687        0.71088031792316        0.96643298094604
Cl           1.77005758924212       -1.53349252087911       -0.39608601028453
8
 energy: -12.830191708852 gnorm: 0.000179934401 xtb: 6.6.1 (8d0f1dd)
C            0.36721720631613       -1.08069380894505       -0.71012484743692
H            0.55755550231933       -0.28079533233651       -1.42245408823283
H           -0.58539993845285       -1.57767768369506       -0.87973042984776
H            0.42712532958932       -0.34776180063056        1.55988057295094
O           -0.20286064330096        0.08967889414870        0.94173661490171
H           -1.11368101388311        0.01018226206277        1.32408668529223
H            0.01801157079598        1.05428731142307        0.91345824643276
Cl           1.53529150261612       -1.90889210702739       -0.23041076005992
8
 energy: -12.834170668346 gnorm: 0.000949230013 xtb: 6.6.1 (8d0f1dd)
C            0.38469924954806       -1.09965271049210       -0.71541690501815
H            0.23687221154617       -0.33123765504561       -1.47071275713611
H           -0.42322254649100       -1.82699208003148       -0.68529004579199
H           -0.08163231918019       -0.55691236944620        1.70962571866588
O           -0.24939841390567        0.06698347176790        0.96627636589199
H           -1.11447963350019        0.52142677931653        1.14230792405262
H            0.45935697224818        0.75124331442888        0.97463567741357
Cl           1.79106399573466       -1.56653101549786       -0.42498398407790
8
 energy: -12.829645258070 gnorm: 0.000218642352 xtb: 6.6.1 (8d0f1dd)
C            0.50692203219104       -1.14447974276547       -0.50958631843992
H            0.65690781609709       -0.26203128061388       -1.13613196584293
H           -0.49765415492032       -1.55838800798284       -0.62810265610438
H            0.28056100741265       -0.47798423455413        0.72683623354593
O           -0.41992366409462        0.28713965682888        0.85428962214283
H           -1.14029698826543        0.08329373017312        1.49203429808453
H           -0.03528157721009        1.15589107390247        1.10868957329389
Cl           1.65202504478963       -2.12511345998813       -0.41158679267991
8
 energy: -12.833709422284 gnorm: 0.000246767762 xtb: 6.6.1 (8d0f1dd)
C            0.51219955521026       -1.15414669322909       -0.51545061114806
H            0.66777573453256       -0.28197533188326       -1.15617745074006
H           -0.48975018872266       -1.57392147116236       -0.64128383534874
H            0.25695570425354       -0.46291351164347        0.67592927671656
O           -0.43511936429605        0.31021291511139        0.86352941309199
H           -1.13601442104684        0.08514316715025        1.51327145249236
H           -0.03203683458713        1.16359831042823        1.13512748525312
Cl           1.65924933065637       -2.12766964977161       -0.37850373631731
8
 energy: -12.837365536223 gnorm: 0.000956886991 xtb: 6.6.1 (8d0f1dd)
C            0.51540190789637       -1.16088280970949       -0.52400391056517
H            0.67801650393393       -0.30487924201703       -1.18593767310711
H           -0.48245061218856       -1.58909307952519       -0.65977759161222
H            0.23252676163677       -0.44295980617816        0.61810129721196
O           -0.45275381504966        0.33075372241783        0.87567558708106
H           -1.11991910968353        0.07573318498651        1.54745798883620
H           -0.03288258700261        1.17120653988272        1.15734936021416
Cl           1.66532046645718       -2.12155077485705       -0.33242306405896
8
 energy: -12.840664766587 gnorm: 0.000962997746 xtb: 6.6.1 (8d0f1dd)
C            0.51667565826880       -1.16648448240754       -0.53530331053830
H            0.69250539702303       -0.32415443498672       -1.21211286724797
H           -0.47383757015578       -1.60643858149988       -0.69093370083868
H            0.19290120243938       -0.42827517003344        0.56704132764947
O           -0.46800595140355        0.35114809548310        0.88937687835846
H           -1.10985448917698        0.07599062439052        1.57640571114758
H           -0.01474674453951        1.16819844506930        1.18498564147018
Cl           1.66762201354469       -2.11165676101533       -0.28301768600071
8
 energy: -12.843645393007 gnorm: 0.000478036828 xtb: 6.6.1 (8d0f1dd)
C            0.51371664406540       -1.17153918324011       -0.54732476890643
H            0.67424357700606       -0.34882174675905       -1.25249128812737
H           -0.45817656618856       -1.65165973844940       -0.70637793180418
H            0.14688712310722       -0.41230003409339        0.50910181754434
O           -0.48248438345726        0.37259400167221        0.90540918383133
H           -1.09248265620404        0.07512932028271        1.61087728256718
H            0.01103502510827        1.16068925159031        1.21296497250080
Cl           1.69052075256290       -2.06576413600329       -0.23571727360554
8
 energy: -12.846358694282 gnorm: 0.000504055255 xtb: 6.6.1 (8d0f1dd)
C            0.51001504674965       -1.17027632150556       -0.56337524218847
H            0.71004261360273       -0.37361168680081       -1.28893969889957
H           -0.44939215977398       -1.66106968046797       -0.76326129360730
H            0.08813805770023       -0.38139821165177        0.43688560510098
O           -0.50764640347918        0.38309943714747        0.92875989077835
H           -1.03130952509830        0.04347483497299        1.68297326114702
H            0.01398117630954        1.16203929160993        1.20967408227272
Cl           1.66943070998931       -2.04392992830435       -0.14627461060368
8
 energy: -12.848713244189 gnorm: 0.000324779493 xtb: 6.6.1 (8d0f1dd)
C            0.50988044098385       -1.17518496327726       -0.57657270725588
H            0.72361520969274       -0.40898427345742       -1.33081537959060
H           -0.43785557562450       -1.68718207208335       -0.78017362100602
H            0.04550272551367       -0.34227628986439        0.37745838489073
O           -0.52066148715060        0.40404153084373        0.94315383067323
H           -1.00970899440278        0.02221928028541        1.69921249313886
H            0.02775798236386        1.15670579409229        1.24176172234285
Cl           1.66472921462379       -2.01101127153900       -0.07758272919323
8
 energy: -12.850626434826 gnorm: 0.000760899719 xtb: 6.6.1 (8d0f1dd)
C            0.51468727042811       -1.18741648155991       -0.58700770402889
H            0.72854007888874       -0.43855206397044       -1.35778497883554
H           -0.42329618506299       -1.71862707358368       -0.78545941539969
H            0.00837858608910       -0.31555965828778        0.34868435738247
O           -0.53303806982100        0.42417052315612        0.95053566415063
H           -1.00404944509255        0.02153819262854        1.70681389251715
H            0.03782763039033        1.15624875800384        1.25721285915621
Cl           1.67420965018025       -1.98347446138663       -0.03655268094244
8
 energy: -12.852071292579 gnorm: 0.000795122587 xtb: 6.6.1 (8d0f1dd)
C            0.52316735563685       -1.20124091583110       -0.59511629285857
H            0.73248380692410       -0.45823982204379       -1.37145300906187
H           -0.40677600924219       -1.74669596624032       -0.78708528518725
H           -0.01864611302544       -0.29940272304139        0.33934279715033
O           -0.54790483592217        0.44182705621814        0.95676415235378
H           -1.00567732916626        0.03000572525324        1.71514898626666
H            0.03840923128923        1.16281102835695        1.25818335184620
Cl           1.68820340950600       -1.97073664767159       -0.01934270650939
8
 energy: -12.853088644820 gnorm: 0.000867675268 xtb: 6.6.1 (8d0f1dd)
C            0.53129522337456       -1.22134405270733       -0.60440267525609
H            0.73792633429714       -0.48398442388855       -1.38556411537809
H           -0.39589478741413       -1.77290458145521       -0.78467483526483
H           -0.04351475916325       -0.27551326010813        0.34012264616552
O           -0.55961963155978        0.45773869942048        0.95952295325325
H           -0.99874456597692        0.04371385862153        1.72763555309420
H            0.03379427611789        1.17890755306971        1.24691390506422
Cl           1.69801742632444       -1.96828605795249       -0.00311143767822
8
 energy: -12.853757518273 gnorm: 0.000865456572 xtb: 6.6.1 (8d0f1dd)
C            0.53201195029823       -1.24657029881571       -0.61417953459484
H            0.72509492173903       -0.51465024014672       -1.40252808858370
H           -0.39737753092339       -1.80013729983492       -0.76970731949520
H           -0.05773182283509       -0.24976569127201        0.34959110338543
O           -0.55553279907496        0.48407202667141        0.96099933011067
H           -1.00601188393557        0.07258693055944        1.72479026244609
H            0.05554675458947        1.18805486226620        1.25459957534947
Cl           1.70725992614217       -1.97526255442773       -0.00712333461797
8
 energy: -12.854157715386 gnorm: 0.000957984653 xtb: 6.6.1 (8d0f1dd)
C            0.54715469326598       -1.27262201162892       -0.61545544312227
H            0.74820633898604       -0.54919160963463       -1.40857008120603
H           -0.38104094910731       -1.82708424734171       -0.76745179291810
H           -0.07842482025861       -0.22479906005563        0.35209053011294
O           -0.57145276148648        0.50546908608146        0.95081054718023
H           -1.01744390150813        0.09685770852207        1.71939639252865
H            0.04231381826026        1.21149117071127        1.23588618744410
Cl           1.71394709784835       -1.98179330165388        0.02973565398016
8
 energy: -12.852500111367 gnorm: 0.000305992289 xtb: 6.6.1 (8d0f1dd)
C            0.52680788479829       -1.26162499082824       -0.56981854266108
H            0.58229717512565       -0.65512520533573       -1.48531228120047
H           -0.34097478326682       -1.93573314096428       -0.57975077158291
H            0.04264673340569       -0.34327252231853        0.19634499638946
O           -0.50635574782842        0.65829672819174        0.95352026711750
H           -1.27223955405458        0.30871058421484        1.43531230576008
H            0.14770150332763        1.00630594178530        1.57888147311886
Cl           1.82337630449253       -1.81922965974514       -0.03273545294137
8
 energy: -12.852080876102 gnorm: 0.000765250363 xtb: 6.6.1 (8d0f1dd)
C            0.53232044584777       -1.27451220256106       -0.57079635677942
H            0.57639577172780       -0.68632675954129       -1.49929928603744
H           -0.33041729240567       -1.95592692381117       -0.56092768887566
H            0.05493163231456       -0.35308523011746        0.17798408402088
O           -0.50735896533140        0.69049786202688        0.96060496223670
H           -1.29564187723151        0.35063599055534        1.41108490960844
H            0.13626554219666        1.00266783276609        1.61379590846818
Cl           1.83676425888191       -1.81562283431723       -0.03600453864151
8
 energy: -12.851509756827 gnorm: 0.000941307699 xtb: 6.6.1 (8d0f1dd)
C            0.53524847742576       -1.29423587619659       -0.56211784458696
H            0.50539491706482       -0.75593204545499       -1.52232458050890
H           -0.30501779218450       -1.99816937393077       -0.46473116874192
H            0.09550833436840       -0.36468686496300        0.16189560795714
O           -0.45054541480060        0.74829464128542        0.97437017699166
H           -1.35463745425665        0.51865346089030        1.23661791203004
H            0.09125556120976        0.88392362543347        1.76559333396136
Cl           1.88605288717173       -1.77951983206475       -0.09286144310162
8
 energy: -12.851504836154 gnorm: 0.000608304032 xtb: 6.6.1 (8d0f1dd)
C            0.53728707470250       -1.32074074796492       -0.54064705057431
H            0.22188334777090       -0.91016640339055       -1.51301417769432
H           -0.15452698731883       -2.09941941670890       -0.18305910347942
H            0.16350630078296       -0.37756739191095        0.18407052812973
O           -0.29723362460343        0.77826311696246        1.07863900770550
H           -1.21106881581690        0.98690977491998        0.83553117879285
H           -0.26941634920564        0.49344426092896        2.00349431308884
Cl           2.01282856968831       -1.59239545783607       -0.36857270196860
8
 energy: -12.850693432862 gnorm: 0.000609694744 xtb: 6.6.1 (8d0f1dd)
C            0.53931074183888       -1.34250906103813       -0.53688659346754
H            0.18210260495285       -0.96047883684733       -1.50679008496961
H           -0.11818050484795       -2.13507662254707       -0.14520551639751
H            0.17002733168875       -0.40678409516734        0.18135019106584
O           -0.27861184277701        0.79385428368091        1.11074853988639
H           -1.13306705237952        1.11395815195070        0.78799847629438
H           -0.38490109335162        0.46714203360764        2.01518453262187
Cl           2.02657933087530       -1.57177811863928       -0.40995755103377
8
 energy: -12.849769722545 gnorm: 0.000734940505 xtb: 6.6.1 (8d0f1dd)
C            0.64772713103375       -1.51510801722841       -0.17927797437447
H            0.08982591264320       -0.46340989654887        0.11780297421334
H           -0.24012280692588       -2.16385618408968       -0.25746204978678
H            1.20009824312790       -1.69407369698599        0.75762871031866
O           -0.62823158964935        0.95714580774718        0.47989539012535
H           -1.47415224297997        0.75594170312872        0.90422229595616
H           -0.06832925218779        1.43698207199536        1.10523238567673
Cl           1.47644412093824       -1.35529405301832       -1.43159973812905
8
 energy: -12.848715335471 gnorm: 0.000973061504 xtb: 6.6.1 (8d0f1dd)
C            0.66274508206261       -1.52187477738138       -0.18378054726381
H            0.09216795007446       -0.48660089634863        0.11378293273338
H           -0.21259004288063       -2.18922607478251       -0.25033510265388
H            1.23000804240155       -1.68846656522656        0.74713860039354
O           -0.66274263903964        0.96772194048492        0.48683226913133
H           -1.48905255871050        0.75953425535202        0.94351712026512
H           -0.09214438649149        1.46912700373470        1.08485267799132
Cl           1.47486806858362       -1.35188715083312       -1.44556595659685
8
 energy: -12.847604896544 gnorm: 0.000785537871 xtb: 6.6.1 (8d0f1dd)
C            0.66701061465386       -1.53278984093504       -0.19255793165983
H            0.08823865115586       -0.51134801305767        0.10397306509961
H           -0.20495246401550       -2.19899931992171       -0.30631551748999
H            1.20022824219232       -1.72086974398006        0.75464650836787
O           -0.70992736706033        0.96987441902918        0.49943261143915
H           -1.46259386158673        0.75597320722558        1.06682917017821
H           -0.10130255450331        1.53811148050824        0.98991782386971
Cl           1.52655825516353       -1.34162445386830       -1.41948373580482
8
 energy: -12.846512980509 gnorm: 0.000857846046 xtb: 6.6.1 (8d0f1dd)
C            0.67890253516567       -1.54153013490567       -0.19921875160398
H            0.09939476898248       -0.53170242762696        0.10469636012548
H           -0.18633540845283       -2.21957503241978       -0.29686537216759
H            1.23258608441133       -1.72403685510028        0.73783695990805
O           -0.71850447581166        0.99151986403199        0.51167004627048
H           -1.49578886591427        0.78374163664282        1.04690110277375
H           -0.12109023994698        1.54347084444020        1.03317682079547
Cl           1.51409511756623       -1.34356016006246       -1.44175517210147
8
 energy: -12.845417309630 gnorm: 0.000785921369 xtb: 6.6.1 (8d0f1dd)
C            0.68321553290745       -1.55604657557509       -0.20685485551035
H            0.10551190678821       -0.55650257533090        0.10533846756480
H           -0.18314358718647       -2.22802680462695       -0.33712307013883
H            1.21759113693085       -1.76386372583113        0.73645502223603
O           -0.74668604942431        0.99954520846963        0.52726632740869
H           -1.47608552138360        0.79382921768364        1.12690760103019
H           -0.14067195346576        1.60615611627804        0.97296221819844
Cl           1.54352805083376       -1.33676312606740       -1.42850971678903
8
 energy: -12.844381202110 gnorm: 0.000586275354 xtb: 6.6.1 (8d0f1dd)
C            0.70347876589839       -1.56497715950142       -0.20169227320170
H            0.12030805186822       -0.57579509341895        0.10794870836198
H           -0.15088993075495       -2.25967539347763       -0.28652171191368
H            1.27731279792918       -1.74196078329107        0.72515357126254
O           -0.75733341786783        1.02334366964201        0.52263080314797
H           -1.53322586688415        0.82748809705408        1.06398702176771
H           -0.17209323600785        1.60664815138682        1.02271277377056
Cl           1.51570235181909       -1.35674375339359       -1.45777689919538
8
 energy: -12.843365378865 gnorm: 0.000765246901 xtb: 6.6.1 (8d0f1dd)
C            0.71646202607341       -1.57554809554279       -0.20486706069323
H            0.12822654432464       -0.59842239585686        0.10735673492256
H           -0.12609320889949       -2.28773808320622       -0.26258052889668
H            1.31668301763774       -1.73428517793151        0.70883163385067
O           -0.77527345704816        1.03926394119854        0.53150684751165
H           -1.55766129801768        0.85539581348416        1.06714558199600
H           -0.19504020156796        1.62825826902551        1.03077392700623
Cl           1.49595609349743       -1.36859653617111       -1.48172514169717
8
 energy: -12.842363362444 gnorm: 0.000655844115 xtb: 6.6.1 (8d0f1dd)
C            0.72105859887023       -1.58554738619070       -0.21990782968793
H            0.13493319332763       -0.61691574797185        0.10319044214762
H           -0.12229951514714       -2.29630996471963       -0.29034903656451
H            1.31954305143119       -1.75964812846690        0.69252642033785
O           -0.79378015286227        1.05191741825042        0.55680895084115
H           -1.55197086191929        0.86485494076016        1.12546186165768
H           -0.20658263876755        1.66144190945622        1.02146920973303
Cl           1.50235784106695       -1.36146530611786       -1.49275802446493
8
 energy: -12.841451673202 gnorm: 0.000759875451 xtb: 6.6.1 (8d0f1dd)
C            0.73001261626047       -1.59440332746590       -0.23162016754188
H            0.15877219888035       -0.62558901534203        0.09855409843777
H           -0.11514767479821       -2.30534549420433       -0.27524171932813
H            1.35170589487620       -1.76316193702828        0.66666850100903
O           -0.76330370290118        1.09278648109601        0.57843529434139
H           -1.61306671980815        0.91751352313764        1.00184550480785
H           -0.22835328662030        1.62321481690270        1.18222901117634
Cl           1.48264019011047       -1.38668731209686       -1.52442852890269
8
 energy: -12.840553093368 gnorm: 0.000384380483 xtb: 6.6.1 (8d0f1dd)