16
 energy: -17.818574951374 gnorm: 0.000576619838 xtb: 6.6.1 (8d0f1dd)
C           -2.03398264799198        0.09094558445260       -0.50127577437998
C           -1.28148092223165       -0.14835417163990       -1.57541727531205
C            0.16008176357052       -0.02013292505876       -1.63631609027535
C            0.95985948829336        0.23016804578418       -0.60312180405917
H           -1.63202188088489        0.54517831650154        0.38630797978803
H           -3.10358888094213       -0.02848877848277       -0.53247428173613
H           -1.75083010410156       -0.52939659189171       -2.47376410874761
H            0.59835454749983       -0.17984973934522       -2.61376817679289
H            2.02895040886363        0.28315823100109       -0.72004362474326
H            0.58222496456417        0.39312024496179        0.39024762738149
C           -1.69975909975752       -2.04599168483542        0.75360343800011
C           -0.42275103465649       -2.10827034835032        1.08807203025491
H           -2.43689857406749       -1.61542506628932        1.41056356789436
H           -2.07710293178045       -2.53911355428810       -0.12584323594170
H           -0.04771800735382       -1.66030805996436        1.99374166016448
H            0.30956129297507       -2.58302598055729        0.45740102950801
