8
 energy: -12.867844338858 gnorm: 0.000820502967 xtb: 6.6.1 (8d0f1dd)
C            0.70321430618659       -1.59920425999882       -0.14462785441307
H            0.14549914054596       -0.62322761744383        0.11924126332195
H           -0.10040590408756       -2.34052208071438       -0.20642325592860
H            1.38468522322868       -1.74112526495923        0.70045460939592
O           -0.77297531201679        1.10072877293105        0.52537127111955
H           -1.61791987668340        0.91416271939713        0.95700893444346
H           -0.23273556276528        1.63168965907223        1.12515996557851
Cl           1.49389750159174       -1.38417419328341       -1.57974293951759
