16
 energy: -17.830739525814 gnorm: 0.000435927843 xtb: 6.6.1 (8d0f1dd)
C           -6.87712758273525        0.18322169556659        0.40234074627122
C           -5.62125563965744       -0.10297169822630        0.99077784745552
C           -8.02335502583169       -0.27872154838989        1.09362461808638
C           -5.48030554349318       -1.85364655921655        1.28792633576706
C           -6.66042343727483       -2.50854481145668        0.85920173621936
C           -7.88239532481869       -2.02974288318172        1.39083248361683
H           -6.92349712651903        0.18299545318094       -0.68105321864825
H           -6.67764670521426       -2.87080496300484       -0.16274002226829
H           -4.75880256837558        0.16642818197040        0.39068251576835
H           -5.51796118541819        0.26023163830622        2.00705410607958
H           -4.57091648917402       -2.16732969344040        0.78679549529394
H           -5.34865199742123       -1.84283561901548        2.36400925237054
H           -8.09150966888714        0.07169510274933        2.11731573274710
H           -8.96372513868266       -0.14141849074472        0.57079627527556
H           -8.77582894760231       -2.47538224066326        0.96694434175896
H           -7.92220758589337       -2.03124886743334        2.47424987020870
